ITEM: TIMESTEP
0
ITEM: NUMBER OF ATOMS
864
ITEM: BOX BOUNDS pp pp pp
0.0000000000000000e+00 2.0000000000000000e+01
0.0000000000000000e+00 2.0000000000000000e+01
0.0000000000000000e+00 2.0000000000000000e+01
ITEM: ATOMS id type xs ys zs
1 1 0 0 0
2 1 0.09025 0.09025 0
3 1 0.09025 0 0.09025
4 1 0 0.09025 0.09025
5 1 0.1805 0 0
8 1 0.1805 0.09025 0.09025
13 1 0 0.1805 0
15 1 0.09025 0.1805 0.09025
17 1 0.1805 0.1805 0
37 1 0 0 0.1805
38 1 0.09025 0.09025 0.1805
41 1 0.1805 0 0.1805
49 1 0 0.1805 0.1805
53 1 0.1805 0.1805 0.1805
6 1 0.27075 0.09025 0
7 1 0.27075 0 0.09025
9 1 0.361 0 0
10 1 0.45125 0.09025 0
11 1 0.45125 0 0.09025
12 1 0.361 0.09025 0.09025
19 1 0.27075 0.1805 0.09025
21 1 0.361 0.1805 0
23 1 0.45125 0.1805 0.09025
42 1 0.27075 0.09025 0.1805
45 1 0.361 0 0.1805
46 1 0.45125 0.09025 0.1805
57 1 0.361 0.1805 0.1805
14 1 0.09025 0.27075 0
16 1 0 0.27075 0.09025
20 1 0.1805 0.27075 0.09025
25 1 0 0.361 0
26 1 0.09025 0.45125 0
27 1 0.09025 0.361 0.09025
28 1 0 0.45125 0.09025
29 1 0.1805 0.361 0
32 1 0.1805 0.45125 0.09025
50 1 0.09025 0.27075 0.1805
61 1 0 0.361 0.1805
62 1 0.09025 0.45125 0.1805
65 1 0.1805 0.361 0.1805
18 1 0.27075 0.27075 0
22 1 0.45125 0.27075 0
24 1 0.361 0.27075 0.09025
30 1 0.27075 0.45125 0
31 1 0.27075 0.361 0.09025
33 1 0.361 0.361 0
34 1 0.45125 0.45125 0
35 1 0.45125 0.361 0.09025
36 1 0.361 0.45125 0.09025
54 1 0.27075 0.27075 0.1805
58 1 0.45125 0.27075 0.1805
66 1 0.27075 0.45125 0.1805
69 1 0.361 0.361 0.1805
70 1 0.45125 0.45125 0.1805
39 1 0.09025 0 0.27075
40 1 0 0.09025 0.27075
44 1 0.1805 0.09025 0.27075
51 1 0.09025 0.1805 0.27075
73 1 0 0 0.361
74 1 0.09025 0.09025 0.361
75 1 0.09025 0 0.45125
76 1 0 0.09025 0.45125
77 1 0.1805 0 0.361
80 1 0.1805 0.09025 0.45125
85 1 0 0.1805 0.361
87 1 0.09025 0.1805 0.45125
89 1 0.1805 0.1805 0.361
43 1 0.27075 0 0.27075
47 1 0.45125 0 0.27075
48 1 0.361 0.09025 0.27075
55 1 0.27075 0.1805 0.27075
59 1 0.45125 0.1805 0.27075
78 1 0.27075 0.09025 0.361
79 1 0.27075 0 0.45125
81 1 0.361 0 0.361
82 1 0.45125 0.09025 0.361
83 1 0.45125 0 0.45125
84 1 0.361 0.09025 0.45125
91 1 0.27075 0.1805 0.45125
93 1 0.361 0.1805 0.361
95 1 0.45125 0.1805 0.45125
52 1 0 0.27075 0.27075
56 1 0.1805 0.27075 0.27075
63 1 0.09025 0.361 0.27075
64 1 0 0.45125 0.27075
68 1 0.1805 0.45125 0.27075
86 1 0.09025 0.27075 0.361
88 1 0 0.27075 0.45125
92 1 0.1805 0.27075 0.45125
97 1 0 0.361 0.361
98 1 0.09025 0.45125 0.361
99 1 0.09025 0.361 0.45125
100 1 0 0.45125 0.45125
101 1 0.1805 0.361 0.361
104 1 0.1805 0.45125 0.45125
60 1 0.361 0.27075 0.27075
67 1 0.27075 0.361 0.27075
71 1 0.45125 0.361 0.27075
72 1 0.361 0.45125 0.27075
90 1 0.27075 0.27075 0.361
94 1 0.45125 0.27075 0.361
96 1 0.361 0.27075 0.45125
102 1 0.27075 0.45125 0.361
103 1 0.27075 0.361 0.45125
105 1 0.361 0.361 0.361
106 1 0.45125 0.45125 0.361
107 1 0.45125 0.361 0.45125
108 1 0.361 0.45125 0.45125
433 2 0 0 0.5295
434 2 0.08825 0.08825 0.5295
435 2 0.08825 0 0.61775
436 2 0 0.08825 0.61775
437 2 0.1765 0 0.5295
440 2 0.1765 0.08825 0.61775
445 2 0 0.1765 0.5295
447 2 0.08825 0.1765 0.61775
449 2 0.1765 0.1765 0.5295
469 2 0 0 0.706
470 2 0.08825 0.08825 0.706
473 2 0.1765 0 0.706
481 2 0 0.1765 0.706
485 2 0.1765 0.1765 0.706
438 2 0.26475 0.08825 0.5295
439 2 0.26475 0 0.61775
441 2 0.353 0 0.5295
442 2 0.44125 0.08825 0.5295
443 2 0.44125 0 0.61775
444 2 0.353 0.08825 0.61775
451 2 0.26475 0.1765 0.61775
453 2 0.353 0.1765 0.5295
455 2 0.44125 0.1765 0.61775
474 2 0.26475 0.08825 0.706
477 2 0.353 0 0.706
478 2 0.44125 0.08825 0.706
489 2 0.353 0.1765 0.706
446 2 0.08825 0.26475 0.5295
448 2 0 0.26475 0.61775
452 2 0.1765 0.26475 0.61775
457 2 0 0.353 0.5295
458 2 0.08825 0.44125 0.5295
459 2 0.08825 0.353 0.61775
460 2 0 0.44125 0.61775
461 2 0.1765 0.353 0.5295
464 2 0.1765 0.44125 0.61775
482 2 0.08825 0.26475 0.706
493 2 0 0.353 0.706
494 2 0.08825 0.44125 0.706
497 2 0.1765 0.353 0.706
450 2 0.26475 0.26475 0.5295
454 2 0.44125 0.26475 0.5295
456 2 0.353 0.26475 0.61775
462 2 0.26475 0.44125 0.5295
463 2 0.26475 0.353 0.61775
465 2 0.353 0.353 0.5295
466 2 0.44125 0.44125 0.5295
467 2 0.44125 0.353 0.61775
468 2 0.353 0.44125 0.61775
486 2 0.26475 0.26475 0.706
490 2 0.44125 0.26475 0.706
498 2 0.26475 0.44125 0.706
501 2 0.353 0.353 0.706
502 2 0.44125 0.44125 0.706
471 2 0.08825 0 0.79425
472 2 0 0.08825 0.79425
476 2 0.1765 0.08825 0.79425
483 2 0.08825 0.1765 0.79425
505 2 0 0 0.8825
506 2 0.08825 0.08825 0.8825
507 2 0.08825 0 0.97075
508 2 0 0.08825 0.97075
509 2 0.1765 0 0.8825
512 2 0.1765 0.08825 0.97075
517 2 0 0.1765 0.8825
519 2 0.08825 0.1765 0.97075
521 2 0.1765 0.1765 0.8825
475 2 0.26475 0 0.79425
479 2 0.44125 0 0.79425
480 2 0.353 0.08825 0.79425
487 2 0.26475 0.1765 0.79425
491 2 0.44125 0.1765 0.79425
510 2 0.26475 0.08825 0.8825
511 2 0.26475 0 0.97075
513 2 0.353 0 0.8825
514 2 0.44125 0.08825 0.8825
515 2 0.44125 0 0.97075
516 2 0.353 0.08825 0.97075
523 2 0.26475 0.1765 0.97075
525 2 0.353 0.1765 0.8825
527 2 0.44125 0.1765 0.97075
484 2 0 0.26475 0.79425
488 2 0.1765 0.26475 0.79425
495 2 0.08825 0.353 0.79425
496 2 0 0.44125 0.79425
500 2 0.1765 0.44125 0.79425
518 2 0.08825 0.26475 0.8825
520 2 0 0.26475 0.97075
524 2 0.1765 0.26475 0.97075
529 2 0 0.353 0.8825
530 2 0.08825 0.44125 0.8825
531 2 0.08825 0.353 0.97075
532 2 0 0.44125 0.97075
533 2 0.1765 0.353 0.8825
536 2 0.1765 0.44125 0.97075
492 2 0.353 0.26475 0.79425
499 2 0.26475 0.353 0.79425
503 2 0.44125 0.353 0.79425
504 2 0.353 0.44125 0.79425
522 2 0.26475 0.26475 0.8825
526 2 0.44125 0.26475 0.8825
528 2 0.353 0.26475 0.97075
534 2 0.26475 0.44125 0.8825
535 2 0.26475 0.353 0.97075
537 2 0.353 0.353 0.8825
538 2 0.44125 0.44125 0.8825
539 2 0.44125 0.353 0.97075
540 2 0.353 0.44125 0.97075
109 1 0 0.5415 0
110 1 0.09025 0.63175 0
111 1 0.09025 0.5415 0.09025
112 1 0 0.63175 0.09025
113 1 0.1805 0.5415 0
116 1 0.1805 0.63175 0.09025
121 1 0 0.722 0
123 1 0.09025 0.722 0.09025
125 1 0.1805 0.722 0
145 1 0 0.5415 0.1805
146 1 0.09025 0.63175 0.1805
149 1 0.1805 0.5415 0.1805
157 1 0 0.722 0.1805
161 1 0.1805 0.722 0.1805
114 1 0.27075 0.63175 0
115 1 0.27075 0.5415 0.09025
117 1 0.361 0.5415 0
118 1 0.45125 0.63175 0
119 1 0.45125 0.5415 0.09025
120 1 0.361 0.63175 0.09025
127 1 0.27075 0.722 0.09025
129 1 0.361 0.722 0
131 1 0.45125 0.722 0.09025
150 1 0.27075 0.63175 0.1805
153 1 0.361 0.5415 0.1805
154 1 0.45125 0.63175 0.1805
165 1 0.361 0.722 0.1805
122 1 0.09025 0.81225 0
124 1 0 0.81225 0.09025
128 1 0.1805 0.81225 0.09025
133 1 0 0.9025 0
134 1 0.09025 0.99275 0
135 1 0.09025 0.9025 0.09025
136 1 0 0.99275 0.09025
137 1 0.1805 0.9025 0
140 1 0.1805 0.99275 0.09025
158 1 0.09025 0.81225 0.1805
169 1 0 0.9025 0.1805
170 1 0.09025 0.99275 0.1805
173 1 0.1805 0.9025 0.1805
126 1 0.27075 0.81225 0
130 1 0.45125 0.81225 0
132 1 0.361 0.81225 0.09025
138 1 0.27075 0.99275 0
139 1 0.27075 0.9025 0.09025
141 1 0.361 0.9025 0
142 1 0.45125 0.99275 0
143 1 0.45125 0.9025 0.09025
144 1 0.361 0.99275 0.09025
162 1 0.27075 0.81225 0.1805
166 1 0.45125 0.81225 0.1805
174 1 0.27075 0.99275 0.1805
177 1 0.361 0.9025 0.1805
178 1 0.45125 0.99275 0.1805
147 1 0.09025 0.5415 0.27075
148 1 0 0.63175 0.27075
152 1 0.1805 0.63175 0.27075
159 1 0.09025 0.722 0.27075
181 1 0 0.5415 0.361
182 1 0.09025 0.63175 0.361
183 1 0.09025 0.5415 0.45125
184 1 0 0.63175 0.45125
185 1 0.1805 0.5415 0.361
188 1 0.1805 0.63175 0.45125
193 1 0 0.722 0.361
195 1 0.09025 0.722 0.45125
197 1 0.1805 0.722 0.361
151 1 0.27075 0.5415 0.27075
155 1 0.45125 0.5415 0.27075
156 1 0.361 0.63175 0.27075
163 1 0.27075 0.722 0.27075
167 1 0.45125 0.722 0.27075
186 1 0.27075 0.63175 0.361
187 1 0.27075 0.5415 0.45125
189 1 0.361 0.5415 0.361
190 1 0.45125 0.63175 0.361
191 1 0.45125 0.5415 0.45125
192 1 0.361 0.63175 0.45125
199 1 0.27075 0.722 0.45125
201 1 0.361 0.722 0.361
203 1 0.45125 0.722 0.45125
160 1 0 0.81225 0.27075
164 1 0.1805 0.81225 0.27075
171 1 0.09025 0.9025 0.27075
172 1 0 0.99275 0.27075
176 1 0.1805 0.99275 0.27075
194 1 0.09025 0.81225 0.361
196 1 0 0.81225 0.45125
200 1 0.1805 0.81225 0.45125
205 1 0 0.9025 0.361
206 1 0.09025 0.99275 0.361
207 1 0.09025 0.9025 0.45125
208 1 0 0.99275 0.45125
209 1 0.1805 0.9025 0.361
212 1 0.1805 0.99275 0.45125
168 1 0.361 0.81225 0.27075
175 1 0.27075 0.9025 0.27075
179 1 0.45125 0.9025 0.27075
180 1 0.361 0.99275 0.27075
198 1 0.27075 0.81225 0.361
202 1 0.45125 0.81225 0.361
204 1 0.361 0.81225 0.45125
210 1 0.27075 0.99275 0.361
211 1 0.27075 0.9025 0.45125
213 1 0.361 0.9025 0.361
214 1 0.45125 0.99275 0.361
215 1 0.45125 0.9025 0.45125
216 1 0.361 0.99275 0.45125
541 2 0 0.5295 0.5295
542 2 0.08825 0.61775 0.5295
543 2 0.08825 0.5295 0.61775
544 2 0 0.61775 0.61775
545 2 0.1765 0.5295 0.5295
548 2 0.1765 0.61775 0.61775
553 2 0 0.706 0.5295
555 2 0.08825 0.706 0.61775
557 2 0.1765 0.706 0.5295
577 2 0 0.5295 0.706
578 2 0.08825 0.61775 0.706
581 2 0.1765 0.5295 0.706
589 2 0 0.706 0.706
593 2 0.1765 0.706 0.706
546 2 0.26475 0.61775 0.5295
547 2 0.26475 0.5295 0.61775
549 2 0.353 0.5295 0.5295
550 2 0.44125 0.61775 0.5295
551 2 0.44125 0.5295 0.61775
552 2 0.353 0.61775 0.61775
559 2 0.26475 0.706 0.61775
561 2 0.353 0.706 0.5295
563 2 0.44125 0.706 0.61775
582 2 0.26475 0.61775 0.706
585 2 0.353 0.5295 0.706
586 2 0.44125 0.61775 0.706
597 2 0.353 0.706 0.706
554 2 0.08825 0.79425 0.5295
556 2 0 0.79425 0.61775
560 2 0.1765 0.79425 0.61775
565 2 0 0.8825 0.5295
566 2 0.08825 0.97075 0.5295
567 2 0.08825 0.8825 0.61775
568 2 0 0.97075 0.61775
569 2 0.1765 0.8825 0.5295
572 2 0.1765 0.97075 0.61775
590 2 0.08825 0.79425 0.706
601 2 0 0.8825 0.706
602 2 0.08825 0.97075 0.706
605 2 0.1765 0.8825 0.706
558 2 0.26475 0.79425 0.5295
562 2 0.44125 0.79425 0.5295
564 2 0.353 0.79425 0.61775
570 2 0.26475 0.97075 0.5295
571 2 0.26475 0.8825 0.61775
573 2 0.353 0.8825 0.5295
574 2 0.44125 0.97075 0.5295
575 2 0.44125 0.8825 0.61775
576 2 0.353 0.97075 0.61775
594 2 0.26475 0.79425 0.706
598 2 0.44125 0.79425 0.706
606 2 0.26475 0.97075 0.706
609 2 0.353 0.8825 0.706
610 2 0.44125 0.97075 0.706
579 2 0.08825 0.5295 0.79425
580 2 0 0.61775 0.79425
584 2 0.1765 0.61775 0.79425
591 2 0.08825 0.706 0.79425
613 2 0 0.5295 0.8825
614 2 0.08825 0.61775 0.8825
615 2 0.08825 0.5295 0.97075
616 2 0 0.61775 0.97075
617 2 0.1765 0.5295 0.8825
620 2 0.1765 0.61775 0.97075
625 2 0 0.706 0.8825
627 2 0.08825 0.706 0.97075
629 2 0.1765 0.706 0.8825
583 2 0.26475 0.5295 0.79425
587 2 0.44125 0.5295 0.79425
588 2 0.353 0.61775 0.79425
595 2 0.26475 0.706 0.79425
599 2 0.44125 0.706 0.79425
618 2 0.26475 0.61775 0.8825
619 2 0.26475 0.5295 0.97075
621 2 0.353 0.5295 0.8825
622 2 0.44125 0.61775 0.8825
623 2 0.44125 0.5295 0.97075
624 2 0.353 0.61775 0.97075
631 2 0.26475 0.706 0.97075
633 2 0.353 0.706 0.8825
635 2 0.44125 0.706 0.97075
592 2 0 0.79425 0.79425
596 2 0.1765 0.79425 0.79425
603 2 0.08825 0.8825 0.79425
604 2 0 0.97075 0.79425
608 2 0.1765 0.97075 0.79425
626 2 0.08825 0.79425 0.8825
628 2 0 0.79425 0.97075
632 2 0.1765 0.79425 0.97075
637 2 0 0.8825 0.8825
638 2 0.08825 0.97075 0.8825
639 2 0.08825 0.8825 0.97075
640 2 0 0.97075 0.97075
641 2 0.1765 0.8825 0.8825
644 2 0.1765 0.97075 0.97075
600 2 0.353 0.79425 0.79425
607 2 0.26475 0.8825 0.79425
611 2 0.44125 0.8825 0.79425
612 2 0.353 0.97075 0.79425
630 2 0.26475 0.79425 0.8825
634 2 0.44125 0.79425 0.8825
636 2 0.353 0.79425 0.97075
642 2 0.26475 0.97075 0.8825
643 2 0.26475 0.8825 0.97075
645 2 0.353 0.8825 0.8825
646 2 0.44125 0.97075 0.8825
647 2 0.44125 0.8825 0.97075
648 2 0.353 0.97075 0.97075
217 1 0.5415 0 0
218 1 0.63175 0.09025 0
219 1 0.63175 0 0.09025
220 1 0.5415 0.09025 0.09025
221 1 0.722 0 0
224 1 0.722 0.09025 0.09025
229 1 0.5415 0.1805 0
231 1 0.63175 0.1805 0.09025
233 1 0.722 0.1805 0
253 1 0.5415 0 0.1805
254 1 0.63175 0.09025 0.1805
257 1 0.722 0 0.1805
265 1 0.5415 0.1805 0.1805
269 1 0.722 0.1805 0.1805
222 1 0.81225 0.09025 0
223 1 0.81225 0 0.09025
225 1 0.9025 0 0
226 1 0.99275 0.09025 0
227 1 0.99275 0 0.09025
228 1 0.9025 0.09025 0.09025
235 1 0.81225 0.1805 0.09025
237 1 0.9025 0.1805 0
239 1 0.99275 0.1805 0.09025
258 1 0.81225 0.09025 0.1805
261 1 0.9025 0 0.1805
262 1 0.99275 0.09025 0.1805
273 1 0.9025 0.1805 0.1805
230 1 0.63175 0.27075 0
232 1 0.5415 0.27075 0.09025
236 1 0.722 0.27075 0.09025
241 1 0.5415 0.361 0
242 1 0.63175 0.45125 0
243 1 0.63175 0.361 0.09025
244 1 0.5415 0.45125 0.09025
245 1 0.722 0.361 0
248 1 0.722 0.45125 0.09025
266 1 0.63175 0.27075 0.1805
277 1 0.5415 0.361 0.1805
278 1 0.63175 0.45125 0.1805
281 1 0.722 0.361 0.1805
234 1 0.81225 0.27075 0
238 1 0.99275 0.27075 0
240 1 0.9025 0.27075 0.09025
246 1 0.81225 0.45125 0
247 1 0.81225 0.361 0.09025
249 1 0.9025 0.361 0
250 1 0.99275 0.45125 0
251 1 0.99275 0.361 0.09025
252 1 0.9025 0.45125 0.09025
270 1 0.81225 0.27075 0.1805
274 1 0.99275 0.27075 0.1805
282 1 0.81225 0.45125 0.1805
285 1 0.9025 0.361 0.1805
286 1 0.99275 0.45125 0.1805
255 1 0.63175 0 0.27075
256 1 0.5415 0.09025 0.27075
260 1 0.722 0.09025 0.27075
267 1 0.63175 0.1805 0.27075
289 1 0.5415 0 0.361
290 1 0.63175 0.09025 0.361
291 1 0.63175 0 0.45125
292 1 0.5415 0.09025 0.45125
293 1 0.722 0 0.361
296 1 0.722 0.09025 0.45125
301 1 0.5415 0.1805 0.361
303 1 0.63175 0.1805 0.45125
305 1 0.722 0.1805 0.361
259 1 0.81225 0 0.27075
263 1 0.99275 0 0.27075
264 1 0.9025 0.09025 0.27075
271 1 0.81225 0.1805 0.27075
275 1 0.99275 0.1805 0.27075
294 1 0.81225 0.09025 0.361
295 1 0.81225 0 0.45125
297 1 0.9025 0 0.361
298 1 0.99275 0.09025 0.361
299 1 0.99275 0 0.45125
300 1 0.9025 0.09025 0.45125
307 1 0.81225 0.1805 0.45125
309 1 0.9025 0.1805 0.361
311 1 0.99275 0.1805 0.45125
268 1 0.5415 0.27075 0.27075
272 1 0.722 0.27075 0.27075
279 1 0.63175 0.361 0.27075
280 1 0.5415 0.45125 0.27075
284 1 0.722 0.45125 0.27075
302 1 0.63175 0.27075 0.361
304 1 0.5415 0.27075 0.45125
308 1 0.722 0.27075 0.45125
313 1 0.5415 0.361 0.361
314 1 0.63175 0.45125 0.361
315 1 0.63175 0.361 0.45125
316 1 0.5415 0.45125 0.45125
317 1 0.722 0.361 0.361
320 1 0.722 0.45125 0.45125
276 1 0.9025 0.27075 0.27075
283 1 0.81225 0.361 0.27075
287 1 0.99275 0.361 0.27075
288 1 0.9025 0.45125 0.27075
306 1 0.81225 0.27075 0.361
310 1 0.99275 0.27075 0.361
312 1 0.9025 0.27075 0.45125
318 1 0.81225 0.45125 0.361
319 1 0.81225 0.361 0.45125
321 1 0.9025 0.361 0.361
322 1 0.99275 0.45125 0.361
323 1 0.99275 0.361 0.45125
324 1 0.9025 0.45125 0.45125
649 2 0.5295 0 0.5295
650 2 0.61775 0.08825 0.5295
651 2 0.61775 0 0.61775
652 2 0.5295 0.08825 0.61775
653 2 0.706 0 0.5295
656 2 0.706 0.08825 0.61775
661 2 0.5295 0.1765 0.5295
663 2 0.61775 0.1765 0.61775
665 2 0.706 0.1765 0.5295
685 2 0.5295 0 0.706
686 2 0.61775 0.08825 0.706
689 2 0.706 0 0.706
697 2 0.5295 0.1765 0.706
701 2 0.706 0.1765 0.706
654 2 0.79425 0.08825 0.5295
655 2 0.79425 0 0.61775
657 2 0.8825 0 0.5295
658 2 0.97075 0.08825 0.5295
659 2 0.97075 0 0.61775
660 2 0.8825 0.08825 0.61775
667 2 0.79425 0.1765 0.61775
669 2 0.8825 0.1765 0.5295
671 2 0.97075 0.1765 0.61775
690 2 0.79425 0.08825 0.706
693 2 0.8825 0 0.706
694 2 0.97075 0.08825 0.706
705 2 0.8825 0.1765 0.706
662 2 0.61775 0.26475 0.5295
664 2 0.5295 0.26475 0.61775
668 2 0.706 0.26475 0.61775
673 2 0.5295 0.353 0.5295
674 2 0.61775 0.44125 0.5295
675 2 0.61775 0.353 0.61775
676 2 0.5295 0.44125 0.61775
677 2 0.706 0.353 0.5295
680 2 0.706 0.44125 0.61775
698 2 0.61775 0.26475 0.706
709 2 0.5295 0.353 0.706
710 2 0.61775 0.44125 0.706
713 2 0.706 0.353 0.706
666 2 0.79425 0.26475 0.5295
670 2 0.97075 0.26475 0.5295
672 2 0.8825 0.26475 0.61775
678 2 0.79425 0.44125 0.5295
679 2 0.79425 0.353 0.61775
681 2 0.8825 0.353 0.5295
682 2 0.97075 0.44125 0.5295
683 2 0.97075 0.353 0.61775
684 2 0.8825 0.44125 0.61775
702 2 0.79425 0.26475 0.706
706 2 0.97075 0.26475 0.706
714 2 0.79425 0.44125 0.706
717 2 0.8825 0.353 0.706
718 2 0.97075 0.44125 0.706
687 2 0.61775 0 0.79425
688 2 0.5295 0.08825 0.79425
692 2 0.706 0.08825 0.79425
699 2 0.61775 0.1765 0.79425
721 2 0.5295 0 0.8825
722 2 0.61775 0.08825 0.8825
723 2 0.61775 0 0.97075
724 2 0.5295 0.08825 0.97075
725 2 0.706 0 0.8825
728 2 0.706 0.08825 0.97075
733 2 0.5295 0.1765 0.8825
735 2 0.61775 0.1765 0.97075
737 2 0.706 0.1765 0.8825
691 2 0.79425 0 0.79425
695 2 0.97075 0 0.79425
696 2 0.8825 0.08825 0.79425
703 2 0.79425 0.1765 0.79425
707 2 0.97075 0.1765 0.79425
726 2 0.79425 0.08825 0.8825
727 2 0.79425 0 0.97075
729 2 0.8825 0 0.8825
730 2 0.97075 0.08825 0.8825
731 2 0.97075 0 0.97075
732 2 0.8825 0.08825 0.97075
739 2 0.79425 0.1765 0.97075
741 2 0.8825 0.1765 0.8825
743 2 0.97075 0.1765 0.97075
700 2 0.5295 0.26475 0.79425
704 2 0.706 0.26475 0.79425
711 2 0.61775 0.353 0.79425
712 2 0.5295 0.44125 0.79425
716 2 0.706 0.44125 0.79425
734 2 0.61775 0.26475 0.8825
736 2 0.5295 0.26475 0.97075
740 2 0.706 0.26475 0.97075
745 2 0.5295 0.353 0.8825
746 2 0.61775 0.44125 0.8825
747 2 0.61775 0.353 0.97075
748 2 0.5295 0.44125 0.97075
749 2 0.706 0.353 0.8825
752 2 0.706 0.44125 0.97075
708 2 0.8825 0.26475 0.79425
715 2 0.79425 0.353 0.79425
719 2 0.97075 0.353 0.79425
720 2 0.8825 0.44125 0.79425
738 2 0.79425 0.26475 0.8825
742 2 0.97075 0.26475 0.8825
744 2 0.8825 0.26475 0.97075
750 2 0.79425 0.44125 0.8825
751 2 0.79425 0.353 0.97075
753 2 0.8825 0.353 0.8825
754 2 0.97075 0.44125 0.8825
755 2 0.97075 0.353 0.97075
756 2 0.8825 0.44125 0.97075
325 1 0.5415 0.5415 0
326 1 0.63175 0.63175 0
327 1 0.63175 0.5415 0.09025
328 1 0.5415 0.63175 0.09025
329 1 0.722 0.5415 0
332 1 0.722 0.63175 0.09025
337 1 0.5415 0.722 0
339 1 0.63175 0.722 0.09025
341 1 0.722 0.722 0
361 1 0.5415 0.5415 0.1805
362 1 0.63175 0.63175 0.1805
365 1 0.722 0.5415 0.1805
373 1 0.5415 0.722 0.1805
377 1 0.722 0.722 0.1805
330 1 0.81225 0.63175 0
331 1 0.81225 0.5415 0.09025
333 1 0.9025 0.5415 0
334 1 0.99275 0.63175 0
335 1 0.99275 0.5415 0.09025
336 1 0.9025 0.63175 0.09025
343 1 0.81225 0.722 0.09025
345 1 0.9025 0.722 0
347 1 0.99275 0.722 0.09025
366 1 0.81225 0.63175 0.1805
369 1 0.9025 0.5415 0.1805
370 1 0.99275 0.63175 0.1805
381 1 0.9025 0.722 0.1805
338 1 0.63175 0.81225 0
340 1 0.5415 0.81225 0.09025
344 1 0.722 0.81225 0.09025
349 1 0.5415 0.9025 0
350 1 0.63175 0.99275 0
351 1 0.63175 0.9025 0.09025
352 1 0.5415 0.99275 0.09025
353 1 0.722 0.9025 0
356 1 0.722 0.99275 0.09025
374 1 0.63175 0.81225 0.1805
385 1 0.5415 0.9025 0.1805
386 1 0.63175 0.99275 0.1805
389 1 0.722 0.9025 0.1805
342 1 0.81225 0.81225 0
346 1 0.99275 0.81225 0
348 1 0.9025 0.81225 0.09025
354 1 0.81225 0.99275 0
355 1 0.81225 0.9025 0.09025
357 1 0.9025 0.9025 0
358 1 0.99275 0.99275 0
359 1 0.99275 0.9025 0.09025
360 1 0.9025 0.99275 0.09025
378 1 0.81225 0.81225 0.1805
382 1 0.99275 0.81225 0.1805
390 1 0.81225 0.99275 0.1805
393 1 0.9025 0.9025 0.1805
394 1 0.99275 0.99275 0.1805
363 1 0.63175 0.5415 0.27075
364 1 0.5415 0.63175 0.27075
368 1 0.722 0.63175 0.27075
375 1 0.63175 0.722 0.27075
397 1 0.5415 0.5415 0.361
398 1 0.63175 0.63175 0.361
399 1 0.63175 0.5415 0.45125
400 1 0.5415 0.63175 0.45125
401 1 0.722 0.5415 0.361
404 1 0.722 0.63175 0.45125
409 1 0.5415 0.722 0.361
411 1 0.63175 0.722 0.45125
413 1 0.722 0.722 0.361
367 1 0.81225 0.5415 0.27075
371 1 0.99275 0.5415 0.27075
372 1 0.9025 0.63175 0.27075
379 1 0.81225 0.722 0.27075
383 1 0.99275 0.722 0.27075
402 1 0.81225 0.63175 0.361
403 1 0.81225 0.5415 0.45125
405 1 0.9025 0.5415 0.361
406 1 0.99275 0.63175 0.361
407 1 0.99275 0.5415 0.45125
408 1 0.9025 0.63175 0.45125
415 1 0.81225 0.722 0.45125
417 1 0.9025 0.722 0.361
419 1 0.99275 0.722 0.45125
376 1 0.5415 0.81225 0.27075
380 1 0.722 0.81225 0.27075
387 1 0.63175 0.9025 0.27075
388 1 0.5415 0.99275 0.27075
392 1 0.722 0.99275 0.27075
410 1 0.63175 0.81225 0.361
412 1 0.5415 0.81225 0.45125
416 1 0.722 0.81225 0.45125
421 1 0.5415 0.9025 0.361
422 1 0.63175 0.99275 0.361
423 1 0.63175 0.9025 0.45125
424 1 0.5415 0.99275 0.45125
425 1 0.722 0.9025 0.361
428 1 0.722 0.99275 0.45125
384 1 0.9025 0.81225 0.27075
391 1 0.81225 0.9025 0.27075
395 1 0.99275 0.9025 0.27075
396 1 0.9025 0.99275 0.27075
414 1 0.81225 0.81225 0.361
418 1 0.99275 0.81225 0.361
420 1 0.9025 0.81225 0.45125
426 1 0.81225 0.99275 0.361
427 1 0.81225 0.9025 0.45125
429 1 0.9025 0.9025 0.361
430 1 0.99275 0.99275 0.361
431 1 0.99275 0.9025 0.45125
432 1 0.9025 0.99275 0.45125
757 2 0.5295 0.5295 0.5295
758 2 0.61775 0.61775 0.5295
759 2 0.61775 0.5295 0.61775
760 2 0.5295 0.61775 0.61775
761 2 0.706 0.5295 0.5295
764 2 0.706 0.61775 0.61775
769 2 0.5295 0.706 0.5295
771 2 0.61775 0.706 0.61775
773 2 0.706 0.706 0.5295
793 2 0.5295 0.5295 0.706
794 2 0.61775 0.61775 0.706
797 2 0.706 0.5295 0.706
805 2 0.5295 0.706 0.706
809 2 0.706 0.706 0.706
762 2 0.79425 0.61775 0.5295
763 2 0.79425 0.5295 0.61775
765 2 0.8825 0.5295 0.5295
766 2 0.97075 0.61775 0.5295
767 2 0.97075 0.5295 0.61775
768 2 0.8825 0.61775 0.61775
775 2 0.79425 0.706 0.61775
777 2 0.8825 0.706 0.5295
779 2 0.97075 0.706 0.61775
798 2 0.79425 0.61775 0.706
801 2 0.8825 0.5295 0.706
802 2 0.97075 0.61775 0.706
813 2 0.8825 0.706 0.706
770 2 0.61775 0.79425 0.5295
772 2 0.5295 0.79425 0.61775
776 2 0.706 0.79425 0.61775
781 2 0.5295 0.8825 0.5295
782 2 0.61775 0.97075 0.5295
783 2 0.61775 0.8825 0.61775
784 2 0.5295 0.97075 0.61775
785 2 0.706 0.8825 0.5295
788 2 0.706 0.97075 0.61775
806 2 0.61775 0.79425 0.706
817 2 0.5295 0.8825 0.706
818 2 0.61775 0.97075 0.706
821 2 0.706 0.8825 0.706
774 2 0.79425 0.79425 0.5295
778 2 0.97075 0.79425 0.5295
780 2 0.8825 0.79425 0.61775
786 2 0.79425 0.97075 0.5295
787 2 0.79425 0.8825 0.61775
789 2 0.8825 0.8825 0.5295
790 2 0.97075 0.97075 0.5295
791 2 0.97075 0.8825 0.61775
792 2 0.8825 0.97075 0.61775
810 2 0.79425 0.79425 0.706
814 2 0.97075 0.79425 0.706
822 2 0.79425 0.97075 0.706
825 2 0.8825 0.8825 0.706
826 2 0.97075 0.97075 0.706
795 2 0.61775 0.5295 0.79425
796 2 0.5295 0.61775 0.79425
800 2 0.706 0.61775 0.79425
807 2 0.61775 0.706 0.79425
829 2 0.5295 0.5295 0.8825
830 2 0.61775 0.61775 0.8825
831 2 0.61775 0.5295 0.97075
832 2 0.5295 0.61775 0.97075
833 2 0.706 0.5295 0.8825
836 2 0.706 0.61775 0.97075
841 2 0.5295 0.706 0.8825
843 2 0.61775 0.706 0.97075
845 2 0.706 0.706 0.8825
799 2 0.79425 0.5295 0.79425
803 2 0.97075 0.5295 0.79425
804 2 0.8825 0.61775 0.79425
811 2 0.79425 0.706 0.79425
815 2 0.97075 0.706 0.79425
834 2 0.79425 0.61775 0.8825
835 2 0.79425 0.5295 0.97075
837 2 0.8825 0.5295 0.8825
838 2 0.97075 0.61775 0.8825
839 2 0.97075 0.5295 0.97075
840 2 0.8825 0.61775 0.97075
847 2 0.79425 0.706 0.97075
849 2 0.8825 0.706 0.8825
851 2 0.97075 0.706 0.97075
808 2 0.5295 0.79425 0.79425
812 2 0.706 0.79425 0.79425
819 2 0.61775 0.8825 0.79425
820 2 0.5295 0.97075 0.79425
824 2 0.706 0.97075 0.79425
842 2 0.61775 0.79425 0.8825
844 2 0.5295 0.79425 0.97075
848 2 0.706 0.79425 0.97075
853 2 0.5295 0.8825 0.8825
854 2 0.61775 0.97075 0.8825
855 2 0.61775 0.8825 0.97075
856 2 0.5295 0.97075 0.97075
857 2 0.706 0.8825 0.8825
860 2 0.706 0.97075 0.97075
816 2 0.8825 0.79425 0.79425
823 2 0.79425 0.8825 0.79425
827 2 0.97075 0.8825 0.79425
828 2 0.8825 0.97075 0.79425
846 2 0.79425 0.79425 0.8825
850 2 0.97075 0.79425 0.8825
852 2 0.8825 0.79425 0.97075
858 2 0.79425 0.97075 0.8825
859 2 0.79425 0.8825 0.97075
861 2 0.8825 0.8825 0.8825
862 2 0.97075 0.97075 0.8825
863 2 0.97075 0.8825 0.97075
864 2 0.8825 0.97075 0.97075
ITEM: TIMESTEP
5
ITEM: NUMBER OF ATOMS
864
ITEM: BOX BOUNDS pp pp pp
0.0000000000000000e+00 2.0000000000000000e+01
0.0000000000000000e+00 2.0000000000000000e+01
0.0000000000000000e+00 2.0000000000000000e+01
ITEM: ATOMS id type xs ys zs
1 1 0.0216505 0.0216505 0.00941372
2 1 0.0894663 0.0894663 0.00212455
3 1 0.0898261 0.00156122 0.0906804
4 1 0.00156122 0.0898261 0.0906804
5 1 0.180922 0.00988177 0.0107211
8 1 0.180093 0.0908136 0.0901682
13 1 0.00988177 0.180922 0.0107211
15 1 0.0908136 0.180093 0.0901682
17 1 0.179599 0.179599 0.00221282
37 1 0.0174678 0.0174678 0.180008
38 1 0.0905645 0.0905645 0.180198
41 1 0.179765 0.0013303 0.180244
49 1 0.0013303 0.179765 0.180244
53 1 0.180397 0.180397 0.180418
6 1 0.269683 0.0899702 0.00224514
7 1 0.270556 0.00152986 0.0908541
9 1 0.362763 0.00959155 0.0104822
10 1 0.449589 0.0900115 0.00236802
11 1 0.451178 0.00151573 0.0907709
12 1 0.361001 0.0909677 0.0902195
19 1 0.270721 0.180408 0.0903266
21 1 0.35967 0.179729 0.00230924
23 1 0.45126 0.180421 0.0903311
42 1 0.270691 0.0910735 0.180384
45 1 0.360991 0.00136362 0.180317
46 1 0.45125 0.0910957 0.180394
57 1 0.361 0.180477 0.180456
14 1 0.0899702 0.269683 0.00224514
16 1 0.00152986 0.270556 0.0908541
20 1 0.180408 0.270721 0.0903266
25 1 0.00959155 0.362763 0.0104822
26 1 0.0900115 0.449589 0.00236802
27 1 0.0909677 0.361001 0.0902195
28 1 0.00151573 0.451178 0.0907709
29 1 0.179729 0.35967 0.00230924
32 1 0.180421 0.45126 0.0903311
50 1 0.0910735 0.270691 0.180384
61 1 0.00136362 0.360991 0.180317
62 1 0.0910957 0.45125 0.180394
65 1 0.180477 0.361 0.180456
18 1 0.269754 0.269754 0.00229776
22 1 0.4496 0.269812 0.00243656
24 1 0.361008 0.270743 0.0903684
30 1 0.269812 0.4496 0.00243656
31 1 0.270743 0.361008 0.0903684
33 1 0.359725 0.359725 0.00242003
34 1 0.449688 0.449688 0.00257108
35 1 0.45126 0.361008 0.0903674
36 1 0.361008 0.45126 0.0903674
54 1 0.270742 0.270742 0.18047
58 1 0.45125 0.270742 0.180472
66 1 0.270742 0.45125 0.180472
69 1 0.361 0.361 0.180473
70 1 0.45125 0.45125 0.180473
39 1 0.0905385 0.00167224 0.270785
40 1 0.00167224 0.0905385 0.270785
44 1 0.18025 0.0909887 0.270755
51 1 0.0909887 0.18025 0.270755
73 1 0.0174696 0.0174696 0.361137
74 1 0.0905654 0.0905654 0.361116
75 1 0.0900244 0.00203426 0.449414
76 1 0.00203426 0.0900244 0.449414
77 1 0.179733 0.00133802 0.360963
80 1 0.18015 0.0909242 0.450849
85 1 0.00133802 0.179733 0.360963
87 1 0.0909242 0.18015 0.450849
89 1 0.18041 0.18041 0.361026
43 1 0.270655 0.00136282 0.270745
47 1 0.45125 0.00136673 0.270745
48 1 0.360998 0.0911308 0.270751
55 1 0.270737 0.180486 0.270755
59 1 0.451249 0.180491 0.270754
78 1 0.270691 0.0911072 0.361024
79 1 0.270752 0.00217129 0.449924
81 1 0.360989 0.00137801 0.360917
82 1 0.451247 0.09113 0.361017
83 1 0.451432 0.00214807 0.449974
84 1 0.360857 0.0910845 0.450877
91 1 0.27063 0.180406 0.450883
93 1 0.360998 0.180486 0.361012
95 1 0.451071 0.180416 0.450848
52 1 0.00136282 0.270655 0.270745
56 1 0.180486 0.270737 0.270755
63 1 0.0911308 0.360998 0.270751
64 1 0.00136673 0.45125 0.270745
68 1 0.180491 0.451249 0.270754
86 1 0.0911072 0.270691 0.361024
88 1 0.00217129 0.270752 0.449924
92 1 0.180406 0.27063 0.450883
97 1 0.00137801 0.360989 0.360917
98 1 0.09113 0.451247 0.361017
99 1 0.0910845 0.360857 0.450877
100 1 0.00214807 0.451432 0.449974
101 1 0.180486 0.360998 0.361012
104 1 0.180416 0.451071 0.450848
60 1 0.361 0.270743 0.270754
67 1 0.270743 0.361 0.270754
71 1 0.451249 0.361 0.270755
72 1 0.361 0.451249 0.270755
90 1 0.27074 0.27074 0.361009
94 1 0.451247 0.270742 0.361009
96 1 0.360862 0.270644 0.450854
102 1 0.270742 0.451247 0.361009
103 1 0.270644 0.360862 0.450854
105 1 0.360998 0.360998 0.361008
106 1 0.451248 0.451248 0.361009
107 1 0.45108 0.360873 0.45082
108 1 0.360873 0.45108 0.45082
433 2 0.0106843 0.0106843 0.532114
434 2 0.0881596 0.0881596 0.529327
435 2 0.0885327 0.00217447 0.617619
436 2 0.00217447 0.0885327 0.617619
437 2 0.176048 0.00182859 0.531987
440 2 0.176414 0.0883826 0.617738
445 2 0.00182859 0.176048 0.531987
447 2 0.0883826 0.176414 0.617738
449 2 0.176474 0.176474 0.529736
469 2 0.0107214 0.0107214 0.70602
470 2 0.0884086 0.0884086 0.706021
473 2 0.176405 0.00193984 0.706029
481 2 0.00193984 0.176405 0.706029
485 2 0.176453 0.176453 0.706015
438 2 0.264795 0.0883875 0.529722
439 2 0.264718 0.00197237 0.617827
441 2 0.352718 0.00182829 0.532098
442 2 0.441409 0.088403 0.529773
443 2 0.44125 0.00197611 0.61783
444 2 0.353002 0.0884151 0.617776
451 2 0.264747 0.176466 0.617772
453 2 0.353128 0.176525 0.529783
455 2 0.441252 0.176468 0.617772
474 2 0.264739 0.0884035 0.70602
477 2 0.352999 0.0019455 0.70603
478 2 0.441253 0.0884077 0.706018
489 2 0.353002 0.176465 0.706015
446 2 0.0883875 0.264795 0.529722
448 2 0.00197237 0.264718 0.617827
452 2 0.176466 0.264747 0.617772
457 2 0.00182829 0.352718 0.532098
458 2 0.088403 0.441409 0.529773
459 2 0.0884151 0.353002 0.617776
460 2 0.00197611 0.44125 0.61783
461 2 0.176525 0.353128 0.529783
464 2 0.176468 0.441252 0.617772
482 2 0.0884035 0.264739 0.70602
493 2 0.0019455 0.352999 0.70603
494 2 0.0884077 0.441253 0.706018
497 2 0.176465 0.353002 0.706015
450 2 0.264833 0.264833 0.529769
454 2 0.441409 0.264828 0.529804
456 2 0.353002 0.264749 0.617771
462 2 0.264828 0.441409 0.529804
463 2 0.264749 0.353002 0.617771
465 2 0.353123 0.353123 0.529801
466 2 0.441399 0.441399 0.529836
467 2 0.441253 0.353003 0.617773
468 2 0.353003 0.441253 0.617773
486 2 0.264748 0.264748 0.706013
490 2 0.441251 0.264748 0.706013
498 2 0.264748 0.441251 0.706013
501 2 0.353001 0.353001 0.706012
502 2 0.441251 0.441251 0.706013
471 2 0.0885735 0.00215378 0.794403
472 2 0.00215378 0.0885735 0.794403
476 2 0.176416 0.0883761 0.794333
483 2 0.0883761 0.176416 0.794333
505 2 0.0109299 0.0109299 0.882026
506 2 0.0883235 0.0883235 0.882736
507 2 0.088108 0.00596883 0.952673
508 2 0.00596883 0.088108 0.952673
509 2 0.176309 0.00222132 0.882272
512 2 0.176507 0.0883709 0.969107
517 2 0.00222132 0.176309 0.882272
519 2 0.0883709 0.176507 0.969107
521 2 0.176347 0.176347 0.882443
475 2 0.264724 0.00194588 0.794343
479 2 0.441252 0.00194982 0.794339
480 2 0.352999 0.0883921 0.794299
487 2 0.264745 0.176452 0.794275
491 2 0.441251 0.176453 0.794275
510 2 0.264697 0.0883149 0.882479
511 2 0.26165 0.00573019 0.952992
513 2 0.35298 0.00220668 0.882168
514 2 0.441243 0.0883122 0.882468
515 2 0.436745 0.00545253 0.953621
516 2 0.354153 0.0884076 0.968814
523 2 0.265568 0.17688 0.968881
525 2 0.352988 0.1764 0.882356
527 2 0.442779 0.176867 0.96874
484 2 0.00194588 0.264724 0.794343
488 2 0.176452 0.264745 0.794275
495 2 0.0883921 0.352999 0.794299
496 2 0.00194982 0.441252 0.794339
500 2 0.176453 0.441251 0.794275
518 2 0.0883149 0.264697 0.882479
520 2 0.00573019 0.26165 0.952992