ITEM: TIMESTEP
0
ITEM: NUMBER OF ATOMS
864
ITEM: BOX BOUNDS pp pp pp
-1.5998478387346342e+00 2.1599847838734846e+01
-1.5998478387346342e+00 2.1599847838734846e+01
-1.5998478387346342e+00 2.1599847838734846e+01
ITEM: ATOMS id type xs ys zs
249 1 0.134419 0.0996582 0.171213
238 1 0.0315596 0.115859 0.15534
779 2 0.120807 0.151634 0.0932178
834 2 0.20785 0.00132086 0.0186463
463 2 0.17133 0.0833445 0.0278839
5 1 0.21578 0.237887 0.187776
496 2 0.0852581 0.204456 0.199532
285 1 0.218807 0.133522 0.120447
527 2 0.116969 0.0292613 0.106149
411 1 0.232151 0.216672 0.0863982
28 1 0.0373095 0.0343395 0.247084
293 1 0.0212805 0.136663 0.00638706
819 2 0.0756907 0.0377126 0.0244338
539 2 0.0406793 0.000326853 0.150157
67 1 0.356492 0.233922 0.110345
381 1 0.322803 0.148218 0.0650031
38 1 0.307791 0.137335 0.184656
558 2 0.446047 0.00920306 0.103763
153 1 0.335363 0.038514 0.106707
574 2 0.281452 0.0792713 0.0118903
543 2 0.327645 0.245702 0.214593
17 1 0.410147 0.205708 0.192722
233 1 0.499769 0.21634 0.0318977
212 1 0.256867 0.0668815 0.20482
391 1 0.344469 0.0165677 0.240649
203 1 0.405315 0.0833465 0.185119
625 2 0.466607 0.169295 0.108526
69 1 0.385883 0.0677371 0.0260804
378 1 0.186978 0.456727 0.0304331
43 1 0.059344 0.25619 0.0726139
416 1 0.0897642 0.401701 0.0312131
328 1 0.164004 0.257637 0.0245038
566 2 0.0651449 0.441476 0.215417
401 1 0.148851 0.270781 0.245232
81 1 0.163628 0.386748 0.0924908
683 2 0.179499 0.494743 0.189943
447 2 0.100494 0.308531 0.148885
699 2 0.171116 0.3781 0.201787
292 1 0.0709959 0.477519 0.108145
656 2 0.305523 0.439014 0.0781935
126 1 0.351754 0.331217 0.0727043
229 1 0.267599 0.316699 0.135394
346 1 0.324071 0.384501 0.155882
563 2 0.251939 0.326666 0.237795
135 1 0.425303 0.30288 0.131934
516 2 0.44392 0.383407 0.200205
322 1 0.348149 0.478112 0.164494
317 1 0.451523 0.458879 0.12891
343 1 0.488957 0.345003 0.0635329
653 2 0.0692855 0.226067 0.302487
270 1 0.149607 0.0335159 0.250779
228 1 0.0705751 0.127993 0.274119
246 1 0.144134 0.17259 0.369537
255 1 0.111132 0.0387046 0.460624
278 1 0.166317 0.0677324 0.358166
577 2 0.162003 0.246264 0.438296
407 1 0.0736587 0.107149 0.388633
178 1 0.219778 0.0285631 0.421078
100 1 0.0951494 0.00260957 0.326314
753 2 0.245672 0.0295341 0.305128
371 1 0.214017 0.126203 0.451401
110 1 0.171649 0.15703 0.258559
501 2 0.402329 0.198888 0.359861
15 1 0.4751 0.145993 0.486787
609 2 0.414148 0.136532 0.274821
209 1 0.266393 0.112729 0.371842
291 1 0.469051 0.247525 0.271879
140 1 0.434774 0.0109519 0.274201
670 2 0.275687 0.206349 0.406708
857 2 0.372753 0.214639 0.489695
341 1 0.350832 0.0452336 0.328514
697 2 0.363159 0.1236 0.412622
241 1 0.445617 0.0582043 0.359751
325 1 0.45788 0.249104 0.429288
383 1 0.271525 0.171701 0.273763
235 1 0.0480732 0.302368 0.475043
833 2 0.216552 0.447277 0.462038
780 2 0.174238 0.33326 0.491179
676 2 0.240565 0.263524 0.333071
755 2 0.173745 0.483203 0.37853
377 1 0.0784553 0.341187 0.273178
646 2 0.240794 0.432035 0.254973
384 1 0.00492479 0.38991 0.426561
35 1 0.239989 0.321393 0.430361
176 1 0.0324385 0.442315 0.309511
84 1 0.0457029 0.291293 0.376958
309 1 0.167266 0.38442 0.305333
435 2 0.152992 0.287219 0.346952
297 1 0.123403 0.377078 0.400063
262 1 0.161903 0.482042 0.279896
615 2 0.0746578 0.481668 0.444583
599 2 0.100322 0.398423 0.488097
362 1 0.449601 0.476706 0.251349
654 2 0.268721 0.455323 0.356317
675 2 0.345395 0.381218 0.427945
483 2 0.388122 0.312001 0.25122
520 2 0.306646 0.482444 0.438678
230 1 0.353428 0.451763 0.261376
706 2 0.332163 0.256708 0.319962
172 1 0.423316 0.304037 0.351089
445 2 0.34767 0.277843 0.426849
470 2 0.450547 0.46587 0.429077
487 2 0.295142 0.356239 0.32546
708 2 0.45369 0.379426 0.388177
856 2 0.40434 0.384915 0.309847
822 2 0.441336 0.347985 0.481764
747 2 0.15228 0.0991526 0.578502
105 1 0.0822163 0.19287 0.603948
27 1 0.195797 0.185856 0.565608
798 2 0.0172862 0.146465 0.530398
835 2 0.0606472 0.0922067 0.60489
725 2 0.243388 0.0989539 0.680006
68 1 0.0133461 0.224016 0.671213
376 1 0.0786506 0.249884 0.74247
603 2 0.00419558 0.0723037 0.734461
762 2 0.14082 0.159545 0.742537
431 1 0.234193 0.241579 0.65304
479 2 0.240031 0.201671 0.749487
748 2 0.211934 0.0310292 0.532485
839 2 0.138879 0.073613 0.681637
443 2 0.114019 0.178258 0.502907
678 2 0.308864 0.0639874 0.597365
858 2 0.395453 0.157458 0.591063
161 1 0.365427 0.0892172 0.674883
711 2 0.405998 0.174111 0.712272
64 1 0.411181 0.00484801 0.686688
757 2 0.477314 0.203034 0.619476
635 2 0.303921 0.169673 0.636268
668 2 0.321602 0.086868 0.502724
403 1 0.279335 0.204346 0.507686
448 2 0.405179 0.0475167 0.581434
427 1 0.29255 0.000501854 0.697314
612 2 0.17952 0.284734 0.735496
295 1 0.0492763 0.473761 0.630998
109 1 0.116915 0.266659 0.54317
774 2 0.0679943 0.367129 0.580463
125 1 0.0186621 0.320652 0.651202
199 1 0.171751 0.358593 0.661477
179 1 0.146122 0.276465 0.625366
85 1 0.0787771 0.369848 0.708336
664 2 0.175104 0.43591 0.597907
647 2 0.119556 0.454432 0.676254
252 1 0.38391 0.42383 0.516306
852 2 0.32029 0.256885 0.700107
765 2 0.337096 0.316838 0.510364
652 2 0.435936 0.280339 0.683397
660 2 0.350708 0.251867 0.592071
545 2 0.346789 0.454934 0.622061
580 2 0.256295 0.472882 0.646215
824 2 0.400553 0.341656 0.577361
382 1 0.300052 0.341372 0.657883
771 2 0.278686 0.410113 0.538428
39 1 0.435664 0.465097 0.616986
618 2 0.257082 0.2914 0.553395
138 1 0.290221 0.452456 0.733332
12 1 0.374622 0.335329 0.737729
622 2 0.427998 0.3843 0.682688
32 1 0.108231 0.170402 0.982489
226 1 0.0829891 0.0784274 0.90919
601 2 0.141017 0.0185185 0.829686
122 1 0.221199 0.174564 0.988976
686 2 0.0690965 0.125536 0.795331
791 2 0.199064 0.117659 0.812084
621 2 0.0976644 0.185143 0.873164
617 2 0.186406 0.146069 0.902402
542 2 0.0971589 0.00999724 0.750222
517 2 0.177786 0.229759 0.824242
439 2 0.20337 0.0510047 0.897256
454 2 0.221129 0.0117501 0.795993
250 1 0.312452 0.117031 0.933558
658 2 0.439474 0.1053 0.7906
462 2 0.483697 0.192959 0.869563
820 2 0.275086 0.185037 0.87426
638 2 0.366556 0.0317727 0.779832
399 1 0.411185 0.102659 0.895296
428 1 0.303915 0.105328 0.760032
434 2 0.295417 0.0325361 0.852983
275 1 0.314359 0.240696 0.788985
586 2 0.328531 0.200021 0.974317
155 1 0.388288 0.184951 0.867716
369 1 0.432925 0.172118 0.973171
360 1 0.238345 0.390869 0.988392
608 2 0.00419178 0.442184 0.825026
679 2 0.22112 0.421506 0.844607
808 2 0.0013235 0.482849 0.981429
243 1 0.189898 0.475585 0.757591
610 2 0.165652 0.382684 0.765802
651 2 0.0199474 0.276785 0.869229
523 2 0.0944697 0.466027 0.789282
211 1 0.161797 0.252936 0.921194
607 2 0.0495303 0.25857 0.97332
37 1 0.150458 0.346614 0.954473
645 2 0.040596 0.362099 0.930651
452 2 0.172414 0.453995 0.925705
147 1 0.105667 0.319966 0.8175
756 2 0.0959381 0.420019 0.890495
45 1 0.0386339 0.49898 0.903608
691 2 0.337903 0.321446 0.96899
722 2 0.319324 0.47908 0.828775
716 2 0.335299 0.436042 0.988275
114 1 0.474883 0.361512 0.774661
307 1 0.441064 0.310061 0.928399
559 2 0.408837 0.270475 0.806545
843 2 0.255892 0.330397 0.778903
232 1 0.278626 0.493187 0.923817
118 1 0.411388 0.451675 0.775556
685 2 0.259501 0.281765 0.869239
787 2 0.43876 0.406266 0.985534
60 1 0.250979 0.286079 0.976294
128 1 0.468187 0.402323 0.854631
595 2 0.335684 0.382515 0.814595
582 2 0.36077 0.389318 0.907172
534 2 0.115573 0.512229 0.0011735
102 1 0.0827699 0.748818 0.116716
827 2 0.041718 0.672854 0.167207
530 2 0.0709422 0.591085 0.105206
547 2 0.180296 0.572342 0.122297
348 1 0.155187 0.600761 0.0365053
234 1 0.0642544 0.684238 0.039626
33 1 0.112688 0.738866 0.217331
188 1 0.0851526 0.542823 0.188216
323 1 0.183371 0.672603 0.187359
185 1 0.15791 0.679171 0.0976502
840 2 0.247134 0.657482 0.00296734
337 1 0.261412 0.538522 0.0648927
803 2 0.317884 0.65614 0.190547
548 2 0.301624 0.612821 0.111732
453 2 0.273488 0.71874 0.0773042
505 2 0.366274 0.535293 0.074157
813 2 0.417751 0.714964 0.188798
333 1 0.278038 0.548695 0.198014
112 1 0.39232 0.576943 0.183902
493 2 0.449599 0.606913 0.109108
117 1 0.383829 0.693528 0.0955399
121 1 0.416669 0.593025 0.0129861
216 1 0.256664 0.726644 0.20623
737 2 0.131126 0.769827 0.0214532
729 2 0.0137278 0.916244 0.227555
519 2 0.24396 0.792149 0.030251
424 1 0.164485 0.865864 0.0417491
811 2 0.0432801 0.812045 0.0515722
95 1 0.207499 0.790467 0.117596
528 2 0.120873 0.957329 0.0586691
629 2 0.0550548 0.904906 0.130865
544 2 0.206063 0.873795 0.156089
538 2 0.245421 0.98969 0.114676
562 2 0.120499 0.844039 0.149799
512 2 0.191228 0.814413 0.246189
829 2 0.238702 0.944134 0.229105
396 1 0.131848 0.935827 0.217598
304 1 0.0215396 0.826462 0.177291
315 1 0.326461 0.949056 0.155642
481 2 0.270691 0.907233 0.0376403
500 2 0.418741 0.876644 0.129896
620 2 0.419804 0.876618 0.00940402
167 1 0.43698 0.862147 0.236392
193 1 0.289515 0.813347 0.227881
227 1 0.337885 0.758166 0.150298
600 2 0.497253 0.930794 0.0536685
189 1 0.319721 0.844001 0.0912134
723 2 0.397259 0.948056 0.0596127
567 2 0.421498 0.774546 0.0571882
593 2 0.497099 0.825001 0.0311634
634 2 0.0222863 0.653203 0.259442
40 1 0.222287 0.58067 0.452451
552 2 0.0805748 0.516724 0.348142
420 1 0.124157 0.676865 0.445324
286 1 0.133462 0.715246 0.318043
184 1 0.243546 0.558821 0.33717
766 2 0.116672 0.587855 0.287275
740 2 0.00648607 0.542887 0.274929
838 2 0.216588 0.720472 0.409199
413 1 0.0374248 0.573509 0.42906
265 1 0.144184 0.59069 0.385578
356 1 0.202772 0.637239 0.274635
165 1 0.0385746 0.748023 0.293372
324 1 0.129125 0.581748 0.498739
576 2 0.437785 0.694902 0.468835
393 1 0.491391 0.514929 0.346634
394 1 0.434919 0.578721 0.287644
804 2 0.397456 0.531293 0.490554
390 1 0.321611 0.590036 0.418418
746 2 0.426897 0.605754 0.396798
223 1 0.339735 0.681457 0.385607
754 2 0.33025 0.541601 0.296418
284 1 0.354353 0.656307 0.280448
749 2 0.465438 0.67506 0.313061
253 1 0.253717 0.734713 0.30207
131 1 0.396212 0.515807 0.351265
703 2 0.168338 0.873802 0.448071
440 2 0.204361 0.808726 0.365568
7 1 0.101239 0.799934 0.350394
26 1 0.0243823 0.878057 0.441673
1 1 0.0080182 0.997113 0.422533
430 1 0.0268937 0.776764 0.397827
332 1 0.12014 0.780932 0.460017
433 2 0.114978 0.901382 0.347292
837 2 0.197329 0.896589 0.297813
8 1 0.0774251 0.841839 0.262889
633 2 0.0216997 0.931065 0.331426
648 2 0.345487 0.916338 0.274388
426 1 0.263818 0.943373 0.37965
21 1 0.482174 0.766623 0.266979
367 1 0.438249 0.992825 0.467622
731 2 0.489622 0.854063 0.359371
276 1 0.499866 0.958858 0.345866
690 2 0.335449 0.8512 0.439515
133 1 0.337992 0.770509 0.376552
752 2 0.313337 0.760082 0.473695
698 2 0.364154 0.945946 0.424441
529 2 0.281582 0.861025 0.323172
160 1 0.417857 0.800829 0.46794
502 2 0.406491 0.953218 0.347626
294 1 0.382633 0.771934 0.289857
694 2 0.448114 0.750934 0.374244
436 2 0.452531 0.894762 0.444426
240 1 0.398989 0.852835 0.344871
405 1 0.00103798 0.514807 0.520923
422 1 0.0435221 0.607974 0.715674
572 2 0.118548 0.550032 0.711354
264 1 0.187829 0.650333 0.723378
316 1 0.116072 0.554872 0.601753
76 1 0.244533 0.582202 0.650427
129 1 0.0159256 0.623334 0.508533
809 2 0.235639 0.700233 0.61648
469 2 0.143686 0.665887 0.556868
113 1 0.143309 0.717698 0.665895
710 2 0.234945 0.701117 0.51732
29 1 0.0309126 0.634577 0.601149
344 1 0.195664 0.515653 0.534749
260 1 0.41184 0.622216 0.749969
267 1 0.344174 0.613349 0.678853
263 1 0.32491 0.664995 0.606445
65 1 0.407905 0.600122 0.579806
303 1 0.4325 0.683957 0.644926
509 2 0.251782 0.612184 0.536325
801 2 0.459588 0.57176 0.654073
506 2 0.320005 0.547477 0.573294
761 2 0.287842 0.696702 0.71548
288 1 0.492062 0.543895 0.544934
158 1 0.381554 0.728949 0.550348
503 2 0.358058 0.528847 0.709693
287 1 0.460981 0.511642 0.724417
361 1 0.367782 0.631174 0.500443
623 2 0.0243837 0.990565 0.63965
98 1 0.118418 0.801784 0.61016
51 1 0.116119 0.92707 0.601527
555 2 0.0841328 0.919025 0.685472
510 2 0.1465 0.864891 0.731506
70 1 0.0419919 0.943528 0.523309
146 1 0.249342 0.958286 0.595171
816 2 0.0366875 0.791818 0.509625
208 1 0.207942 0.874645 0.60876
86 1 0.248878 0.890469 0.517095
564 2 0.242589 0.908348 0.721475
721 2 0.183611 0.777213 0.556787
34 1 0.176821 0.979706 0.669346
758 2 0.0252598 0.838558 0.617592
207 1 0.0553743 0.771261 0.740008
300 1 0.239085 0.79451 0.726669
674 2 0.471965 0.840977 0.735907
213 1 0.276584 0.781636 0.578433
163 1 0.394666 0.76145 0.647788
154 1 0.361142 0.947325 0.590391
624 2 0.359672 0.856954 0.53923
844 2 0.315667 0.849594 0.651922
148 1 0.499024 0.856025 0.534951
458 2 0.44201 0.916529 0.678781
561 2 0.366415 0.799537 0.726577
695 2 0.485343 0.962736 0.609628
477 2 0.487635 0.759362 0.597719
48 1 0.294833 0.984841 0.507918
321 1 0.14933 0.574134 0.793799
326 1 0.0856248 0.642732 0.825484
16 1 0.0225154 0.57884 0.982874
468 2 0.244212 0.733794 0.827497
626 2 0.158769 0.72653 0.784385
704 2 0.207894 0.626509 0.89343
815 2 0.0881707 0.60427 0.918258
728 2 0.0300695 0.561483 0.805877
823 2 0.144617 0.671789 0.952891
515 2 0.242449 0.634447 0.805084
58 1 0.207788 0.746457 0.935376
495 2 0.209316 0.53551 0.969315
696 2 0.212578 0.548149 0.855579
789 2 0.124803 0.736315 0.877638
418 1 0.00916905 0.721967 0.966464
73 1 0.492792 0.504422 0.89672
180 1 0.380714 0.502543 0.910071
168 1 0.362641 0.71112 0.791272
256 1 0.481861 0.675298 0.995155
588 2 0.357027 0.681453 0.992361
546 2 0.444488 0.58364 0.826721
776 2 0.27444 0.551851 0.765862
578 2 0.452442 0.723717 0.840798
473 2 0.322885 0.594646 0.943056
144 1 0.331599 0.579403 0.835797
459 2 0.394783 0.641591 0.874493
484 2 0.494008 0.589358 0.938861
849 2 0.313982 0.710308 0.905859
814 2 0.0347787 0.994498 0.835843
783 2 0.212506 0.913316 0.835317
465 2 0.0949971 0.899704 0.807807
388 1 0.0442927 0.813351 0.847964
781 2 0.13437 0.826574 0.932201
508 2 0.0242097 0.999968 0.951316
842 2 0.00688447 0.818583 0.953312
432 1 0.130829 0.917391 0.897006
750 2 0.21136 0.929635 0.956895
639 2 0.140642 0.812077 0.814086
511 2 0.127378 0.98713 0.962509
359 1 0.0219804 0.916799 0.883426
174 1 0.0556798 0.90464 0.998374
482 2 0.488428 0.81714 0.913331
853 2 0.482114 0.973308 0.776379
47 1 0.315015 0.993416 0.96558
251 1 0.452894 0.978482 0.967493
742 2 0.320126 0.928898 0.874639
74 1 0.342567 0.803916 0.972109
159 1 0.37924 0.914719 0.768071
350 1 0.254018 0.836029 0.924675
175 1 0.427932 0.894617 0.888577
385 1 0.422962 0.814099 0.817697
182 1 0.431627 0.999268 0.880967
767 2 0.336895 0.831466 0.870961
406 1 0.560973 0.121184 0.204621
305 1 0.681435 0.116532 0.141676
419 1 0.623078 0.20693 0.199126
471 2 0.715953 0.0347802 0.0827873
537 2 0.633113 0.186488 0.0974364
339 1 0.726883 0.218805 0.177388
349 1 0.722564 0.181531 0.0667682
864 2 0.564361 0.0108463 0.0168795
585 2 0.523306 0.0727484 0.115209
177 1 0.619994 0.0129109 0.113916
46 1 0.60698 0.0925067 0.0482063
714 2 0.523514 0.205522 0.197614
456 2 0.505137 0.0329305 0.208043
736 2 0.830798 0.211711 0.14277
806 2 0.797084 0.107752 0.126726
108 1 0.937582 0.0495306 0.0855954
20 1 0.888007 0.147633 0.0975561
358 1 0.862681 0.152302 0.225108
254 1 0.762578 0.152825 0.242942
584 2 0.90244 0.249718 0.221528
415 1 0.876542 0.0676337 0.161553
31 1 0.957265 0.100258 0.208372
201 1 0.75205 0.024022 0.200731
274 1 0.923632 0.245312 0.0314654
80 1 0.819424 0.240598 0.0233174
680 2 0.980429 0.164272 0.0878814
310 1 0.902528 0.118327 0.010097
25 1 0.686021 0.270657 0.0829534
279 1 0.618686 0.49148 0.0558275
741 2 0.540211 0.386582 0.147151
637 2 0.591412 0.281051 0.132061
859 2 0.669914 0.349105 0.140655
319 1 0.594565 0.301313 0.231786
44 1 0.540576 0.417132 0.0353503
794 2 0.6996 0.361041 0.0166823
187 1 0.629623 0.392698 0.21799
398 1 0.721914 0.458564 0.165165
248 1 0.569061 0.297344 0.0360316
630 2 0.559352 0.467936 0.245702
715 2 0.692939 0.432145 0.083243
712 2 0.716174 0.314725 0.234978
210 1 0.505023 0.299647 0.182678
466 2 0.582705 0.495979 0.157037
793 2 0.995724 0.394055 0.0666111
551 2 0.874928 0.356509 0.0445578
702 2 0.953138 0.498155 0.208708
137 1 0.987943 0.31328 0.0987242
302 1 0.817391 0.262947 0.23088
162 1 0.79575 0.403037 0.0692399
414 1 0.898368 0.347838 0.226633
531 2 0.773821 0.326927 0.126339
521 2 0.866932 0.391584 0.138248
157 1 0.89131 0.298642 0.127937
57 1 0.908945 0.459103 0.038831
24 1 0.988553 0.379902 0.184252
472 2 0.812889 0.477366 0.0115788
830 2 0.998478 0.282651 0.215643
355 1 0.631058 0.127433 0.285847
301 1 0.537517 0.142307 0.327345
103 1 0.563372 0.0187938 0.303542
598 2 0.674378 0.244377 0.289441
318 1 0.574301 0.225878 0.291228
54 1 0.572458 0.142079 0.450528
136 1 0.617178 0.0729807 0.390267
855 2 0.712613 0.108809 0.339989
846 2 0.731675 0.220968 0.387076
345 1 0.647892 0.0233952 0.275268
504 2 0.684904 0.172308 0.462066
342 1 0.626269 0.179627 0.366118
335 1 0.508994 0.0672563 0.429147
441 2 0.707695 0.0717413 0.458149
139 1 0.613045 0.0723884 0.499584
649 2 0.535585 0.233468 0.49454
334 1 0.887085 0.0240225 0.409885
810 2 0.910205 0.114672 0.421071
863 2 0.82378 0.0662319 0.483486
724 2 0.976718 0.237448 0.306553
186 1 0.897749 0.0612292 0.28303
589 2 0.873048 0.179851 0.33208
446 2 0.809781 0.0898877 0.370002
770 2 0.765188 0.0160947 0.306042
104 1 0.758246 9.74416e-05 0.422227
661 2 0.818681 0.246236 0.359658
63 1 0.779413 0.163582 0.465526
259 1 0.987426 0.0411244 0.332343
320 1 0.995195 0.196488 0.453899
202 1 0.899229 0.19255 0.488863
87 1 0.657567 0.494698 0.29028
461 2 0.698801 0.40961 0.329459
164 1 0.509785 0.350675 0.27566
775 2 0.719088 0.292621 0.462092
170 1 0.546524 0.381662 0.415314
313 1 0.557586 0.421784 0.333331
52 1 0.627541 0.345909 0.33029
579 2 0.621715 0.437679 0.409207
659 2 0.712343 0.401897 0.422622
220 1 0.610355 0.264167 0.43236
485 2 0.53655 0.29107 0.364218
82 1 0.738203 0.425263 0.253363
78 1 0.719068 0.49913 0.417135
268 1 0.624362 0.368107 0.474608
616 2 0.91373 0.431036 0.474627
662 2 0.931235 0.328168 0.415134
560 2 0.786745 0.341773 0.374559
312 1 0.822861 0.356642 0.278027
831 2 0.835276 0.377527 0.436338
795 2 0.827415 0.495717 0.374902
677 2 0.900357 0.419666 0.377001
666 2 0.959518 0.370442 0.320893
682 2 0.885077 0.451747 0.254066
56 1 0.983046 0.493893 0.388342
556 2 0.853363 0.278192 0.452464
365 1 0.805198 0.490762 0.478622
71 1 0.609485 0.148285 0.660923
467 2 0.684743 0.0952207 0.562818
643 2 0.653958 0.232403 0.52293
111 1 0.70356 0.137698 0.67649
374 1 0.707787 0.217855 0.622956
769 2 0.607759 0.215027 0.729615
79 1 0.555731 0.151059 0.576887
145 1 0.506345 0.0678387 0.622954
409 1 0.515429 0.0324024 0.527404
218 1 0.608495 0.0606385 0.622249
395 1 0.562224 0.0453506 0.725985
247 1 0.70058 0.0304573 0.651132
273 1 0.504397 0.144012 0.699322
91 1 0.862148 0.104926 0.556979
818 2 0.765147 0.128981 0.605203
592 2 0.765761 0.0316182 0.569582
119 1 0.915129 0.19141 0.586959
507 2 0.885934 0.159201 0.694936
423 1 0.999563 0.248449 0.548624
784 2 0.830999 0.0689944 0.677362
92 1 0.989741 0.177333 0.747266
533 2 0.825181 0.230847 0.621741
557 2 0.969148 0.125817 0.657284
166 1 0.915943 0.0325716 0.642592
667 2 0.964239 0.0701526 0.505768
96 1 0.632506 0.482604 0.528928
492 2 0.612733 0.290041 0.588308
536 2 0.539882 0.255098 0.66577
425 1 0.713419 0.431834 0.615817
351 1 0.595574 0.404192 0.613181
707 2 0.535155 0.413127 0.701959
280 1 0.732058 0.314563 0.581122
151 1 0.680677 0.283592 0.693042
644 2 0.665056 0.406638 0.706535
826 2 0.522772 0.327309 0.515699
231 1 0.717569 0.39993 0.531252
851 2 0.501343 0.358892 0.611091
805 2 0.726374 0.469626 0.726596
597 2 0.572553 0.3144 0.733148
733 2 0.527847 0.455531 0.501361
535 2 0.782946 0.268778 0.69667
120 1 0.991065 0.496356 0.734621
130 1 0.844634 0.330901 0.731893
150 1 0.906211 0.352424 0.625313
245 1 0.93253 0.326463 0.524544
841 2 0.807158 0.357243 0.634169
116 1 0.842586 0.440836 0.593041
75 1 0.977651 0.392172 0.71096
53 1 0.815764 0.349743 0.535538
478 2 0.782627 0.257555 0.520707
488 2 0.903692 0.274036 0.682924
10 1 0.824414 0.424202 0.717254
571 2 0.910618 0.464668 0.67511
244 1 0.996575 0.408066 0.534358
513 2 0.601567 0.00394438 0.825517
438 2 0.593798 0.115359 0.94828
190 1 0.662622 0.0971675 0.866998
570 2 0.533258 0.0193322 0.90917
673 2 0.671047 0.079022 0.757296
451 2 0.5333 0.236819 0.783559
665 2 0.502047 0.099431 0.979959
4 1 0.684777 0.192839 0.78038
632 2 0.696301 0.134474 0.969817
719 2 0.66809 0.00342531 0.923895
525 2 0.581279 0.123131 0.780915
3 1 0.585196 0.187911 0.874456
2 1 0.61734 0.203955 0.999205
807 2 0.517135 0.0616855 0.817006
143 1 0.709203 0.182535 0.892909
540 2 0.931575 0.155609 0.830829
156 1 0.77522 0.182492 0.783155
790 2 0.920838 0.0810896 0.762546
386 1 0.994294 0.17161 0.911808
821 2 0.908814 0.036858 0.846051
101 1 0.864762 0.220798 0.785394
641 2 0.959211 0.0785486 0.942311
619 2 0.84505 0.0606198 0.917438
832 2 0.997547 0.0839423 0.836658
89 1 0.802844 0.0646997 0.808858
224 1 0.861463 0.20408 0.945151
605 2 0.829564 0.14423 0.864155
705 2 0.807094 0.134951 0.980756
720 2 0.90793 0.0175742 0.993711
421 1 0.773385 0.0442264 0.990221
404 1 0.595903 0.383388 0.80286
498 2 0.708147 0.255531 0.98554
825 2 0.524914 0.356483 0.962631
6 1 0.669203 0.427807 0.795014
604 2 0.524937 0.313918 0.856236
796 2 0.650946 0.45925 0.973696
314 1 0.649081 0.300555 0.809381
631 2 0.59868 0.275602 0.922697
90 1 0.580791 0.420277 0.904177
590 2 0.545719 0.461584 0.806397
457 2 0.689347 0.336255 0.883971
489 2 0.742825 0.432061 0.889804
730 2 0.949272 0.263221 0.9234
134 1 0.922291 0.452998 0.778532
491 2 0.758433 0.274264 0.831246
258 1 0.976827 0.301104 0.752196
417 1 0.800338 0.377727 0.963956
474 2 0.82329 0.45086 0.813461
204 1 0.752473 0.353158 0.760949
331 1 0.784073 0.269276 0.927875
565 2 0.957294 0.355018 0.861682
306 1 0.86918 0.318054 0.93354
613 2 0.881992 0.442362 0.937898
713 2 0.85013 0.35448 0.839228
198 1 0.960838 0.347948 0.983479
115 1 0.505541 0.657645 0.181198
689 2 0.574802 0.622933 0.128866
181 1 0.665604 0.549129 0.154972
269 1 0.654183 0.587467 0.046819
636 2 0.511142 0.545085 0.0851405
860 2 0.646033 0.66772 0.22109
726 2 0.734197 0.651973 0.00146771
732 2 0.683372 0.741349 0.0427349
734 2 0.651726 0.699245 0.122647
522 2 0.50886 0.558468 0.211092
127 1 0.580189 0.744933 0.0506357
217 1 0.551932 0.600844 0.0212639
410 1 0.74146 0.531748 0.244843
379 1 0.730815 0.660306 0.181481
183 1 0.739522 0.524657 0.091887
370 1 0.50061 0.742076 0.10954
9 1 0.773816 0.716676 0.0883465
397 1 0.980643 0.595636 0.165479
266 1 0.877552 0.508445 0.152496
93 1 0.983818 0.526326 0.0936364
828 2 0.869326 0.731539 0.136238
672 2 0.796722 0.585302 0.173057
191 1 0.84273 0.674943 0.0284193
357 1 0.804488 0.589839 0.0320324
23 1 0.900987 0.617979 0.108274
596 2 0.964046 0.61815 0.0542435
338 1 0.964924 0.716506 0.195828
494 2 0.866674 0.63771 0.197412
429 1 0.619126 0.808319 0.117701
764 2 0.718327 0.882035 0.170149
200 1 0.705914 0.946099 0.111015
389 1 0.529339 0.828819 0.145032
197 1 0.749072 0.826271 0.0502095
132 1 0.694161 0.764404 0.19358
614 2 0.569611 0.767467 0.20758
18 1 0.578232 0.911591 0.079302
214 1 0.642774 0.944667 0.223787
330 1 0.62453 0.849316 0.220945
568 2 0.667841 0.969012 0.0138643
225 1 0.546881 0.944952 0.164183
222 1 0.997548 0.968917 0.0499336
195 1 0.89706 0.937809 0.0821809
671 2 0.806877 0.905482 0.0598965
206 1 0.897094 0.75813 0.229067
271 1 0.80522 0.941614 0.212705
569 2 0.800829 0.850839 0.228532
99 1 0.902775 0.947827 0.240881
277 1 0.77307 0.813188 0.136956
364 1 0.952975 0.979555 0.164748
455 2 0.887815 0.859872 0.178381
49 1 0.797519 0.750527 0.224729
308 1 0.809275 0.996096 0.10786
490 2 0.867783 0.840416 0.0701043
836 2 0.956551 0.854691 0.082164
13 1 0.954321 0.75394 0.0976661
400 1 0.915687 0.765388 0.00658194
800 2 0.55933 0.554551 0.283862
192 1 0.555693 0.524986 0.417924
11 1 0.525463 0.684212 0.42871
375 1 0.73008 0.595405 0.475526
799 2 0.609398 0.72216 0.474785
107 1 0.501748 0.596007 0.456037
785 2 0.620615 0.595684 0.469224
786 2 0.538509 0.613283 0.358419
368 1 0.733397 0.66774 0.306616
340 1 0.682176 0.58747 0.374642
336 1 0.615871 0.661153 0.389167
281 1 0.729842 0.709152 0.424638
650 2 0.565523 0.674312 0.266953
792 2 0.882437 0.586884 0.342173
124 1 0.897594 0.715332 0.436012
196 1 0.997938 0.676953 0.360817
205 1 0.994195 0.704488 0.450636
299 1 0.766649 0.589831 0.323008
311 1 0.835597 0.535537 0.26387
845 2 0.831207 0.661403 0.272406
296 1 0.847899 0.617097 0.475079
142 1 0.838266 0.659847 0.377443
486 2 0.927992 0.639875 0.276876
518 2 0.939367 0.624179 0.417754
642 2 0.897733 0.524299 0.427769
802 2 0.683625 0.77462 0.490319
738 2 0.517206 0.764358 0.49851
380 1 0.652178 0.97627 0.46068
61 1 0.662496 0.957438 0.36028
751 2 0.646915 0.768768 0.280712
587 2 0.734631 0.764849 0.326959
94 1 0.585693 0.913038 0.413475
581 2 0.560861 0.800979 0.390521
392 1 0.531164 0.925133 0.266908
257 1 0.748741 0.856788 0.339485
62 1 0.687734 0.885465 0.43133
812 2 0.720989 0.935141 0.275156
329 1 0.668568 0.795256 0.396103
347 1 0.613856 0.867889 0.333929
640 2 0.921805 0.754801 0.347182
242 1 0.814525 0.935788 0.315527
149 1 0.857079 0.849487 0.300943
22 1 0.93677 0.838101 0.461419
55 1 0.824949 0.756768 0.370652
171 1 0.962552 0.851989 0.309951
450 2 0.92415 0.936999 0.353944
236 1 0.940425 0.941668 0.459346
549 2 0.819944 0.884408 0.427087
499 2 0.810155 0.786879 0.475092
532 2 0.854362 0.967945 0.493403
353 1 0.72027 0.507858 0.531657
693 2 0.592534 0.680815 0.571056
688 2 0.532713 0.661248 0.66701
681 2 0.682772 0.685778 0.520671
782 2 0.669337 0.744693 0.607536
460 2 0.723508 0.604017 0.60325
261 1 0.669711 0.521696 0.633654
363 1 0.562796 0.585411 0.741619
735 2 0.611304 0.58204 0.573168
550 2 0.749588 0.597859 0.723223
221 1 0.544859 0.527147 0.670737
854 2 0.624099 0.609462 0.664064
412 1 0.708771 0.717138 0.702066
772 2 0.630268 0.500644 0.722671
744 2 0.502865 0.663527 0.551081
97 1 0.873807 0.721958 0.530268
687 2 0.830594 0.58045 0.562305
553 2 0.779432 0.686849 0.545193
763 2 0.998993 0.674816 0.716794
759 2 0.870729 0.736713 0.646111
298 1 0.965204 0.588203 0.64332
611 2 0.97845 0.731034 0.562201
850 2 0.931748 0.665111 0.59403
583 2 0.913291 0.555332 0.522997
283 1 0.864848 0.559679 0.663454
861 2 0.810406 0.654607 0.64062
591 2 0.765656 0.502272 0.640066
627 2 0.607291 0.784274 0.720042
373 1 0.590289 0.785693 0.60572
717 2 0.671689 0.861697 0.714973
437 2 0.746808 0.839116 0.535694
760 2 0.683543 0.839634 0.615527
408 1 0.52189 0.861619 0.624904
289 1 0.62837 0.983905 0.724783
215 1 0.701556 0.92981 0.633645
449 2 0.654897 0.879325 0.522832
684 2 0.545451 0.911392 0.730019
606 2 0.527532 0.753969 0.719595
83 1 0.606812 0.931469 0.630137
372 1 0.565554 0.938489 0.526474
41 1 0.674863 0.976302 0.562135
476 2 0.945855 0.864609 0.57191
524 2 0.964311 0.766328 0.676751
692 2 0.769234 0.757032 0.622038
19 1 0.89232 0.824317 0.717603
327 1 0.794774 0.968971 0.705142
88 1 0.842825 0.855465 0.544605
194 1 0.79185 0.859587 0.64711
575 2 0.91878 0.923162 0.650825
862 2 0.947853 0.969807 0.55377
444 2 0.80391 0.768678 0.721658
768 2 0.751738 0.949782 0.516244
352 1 0.89038 0.986325 0.741784
709 2 0.821901 0.954191 0.616239
847 2 0.999028 0.859506 0.719945
354 1 0.672313 0.521097 0.884858
541 2 0.744911 0.582774 0.897751
14 1 0.51715 0.660182 0.77641
777 2 0.604846 0.729951 0.838541
42 1 0.530777 0.69653 0.898919
141 1 0.612469 0.635141 0.875916
526 2 0.662236 0.591391 0.808673
628 2 0.62606 0.670901 0.752274
366 1 0.734245 0.667848 0.80566
655 2 0.656605 0.674511 0.953632
36 1 0.724389 0.533248 0.987831
106 1 0.593275 0.553503 0.925758
219 1 0.555888 0.565669 0.834861
817 2 0.755292 0.521001 0.80596
72 1 0.944187 0.739842 0.891488
402 1 0.926665 0.664087 0.971095
152 1 0.938628 0.523906 0.848386
554 2 0.836836 0.644809 0.753563
77 1 0.835388 0.530575 0.919327
173 1 0.918743 0.555141 0.971292
387 1 0.80506 0.667075 0.911914
743 2 0.760074 0.746608 0.848464
718 2 0.939317 0.614716 0.775691
669 2 0.885606 0.617175 0.859291
239 1 0.853565 0.744053 0.928205
282 1 0.864116 0.715331 0.824229
272 1 0.853327 0.539423 0.798771
778 2 0.998318 0.683881 0.799965
66 1 0.999567 0.622437 0.885905
700 2 0.537583 0.903845 0.975439
290 1 0.722426 0.977123 0.787267
59 1 0.625078 0.900106 0.80058
788 2 0.633198 0.804306 0.804546
657 2 0.643799 0.854313 0.979349
50 1 0.665731 0.860954 0.862393
169 1 0.711304 0.766696 0.922238
480 2 0.526234 0.787279 0.832702
573 2 0.728485 0.910634 0.937588
739 2 0.602307 0.773441 0.933476
797 2 0.73085 0.814289 0.758638
497 2 0.516311 0.927217 0.8579
475 2 0.611442 0.927113 0.920104
30 1 0.921143 0.899675 0.984784
594 2 0.827394 0.954678 0.971556
701 2 0.933791 0.970361 0.916463
442 2 0.84194 0.948723 0.858932
663 2 0.753645 0.984586 0.88708
848 2 0.948942 0.771202 0.79146
727 2 0.94005 0.910802 0.828408
602 2 0.83342 0.906837 0.764782
237 1 0.845439 0.807644 0.834569
123 1 0.920419 0.842136 0.893954
464 2 0.774806 0.756671 0.995467
745 2 0.834273 0.848594 0.942722
773 2 0.766872 0.874555 0.840337
514 2 0.982847 0.953056 0.762446
