LAMMPS (2 Jun 2022)
OMP_NUM_THREADS environment is not set. Defaulting to 1 thread. (src/comm.cpp:98)
  using 1 OpenMP thread(s) per MPI task
#melt Cu-Ni using eam/alloy potential

units metal

lattice  fcc 3.61
Lattice spacing in x,y,z = 3.61 3.61 3.61
region   box block 0 5 0 5 0 5

create_box  2 box
Created orthogonal box = (0 0 0) to (18.05 18.05 18.05)
  2 by 2 by 2 MPI processor grid
create_atoms  1 box
Created 500 atoms
  using lattice units in orthogonal box = (0 0 0) to (18.05 18.05 18.05)
  create_atoms CPU = 0.000 seconds
group 1 type 1 2
500 atoms in group 1

set group 1 type/fraction 2 0.5 100000
Setting atom values ...
  257 settings made for type/fraction
mass  1 63.54
mass  2 58.69
velocity all create 2000  2000

pair_style  eam/alloy
pair_coeff  * * CuNi.eam.alloy Cu Ni
Reading eam/alloy potential file CuNi.eam.alloy with DATE: 2014-07-11
neighbor    2.0 bin
neigh_modify every 20 delay 0 check no

fix 1 all nvt temp 1000 3000 100

thermo  1000
thermo_style  custom   step temp press vol pe ke etotal enthalpy
thermo_modify flush yes

compute  myMSD all msd
fix      2 all ave/time 1 10 10 c_myMSD[4] file msd.txt

dump 1 all custom 1000  dump.lammpstrj  id type x y z

run 1000000
Neighbor list info ...
  update every 20 steps, delay 0 steps, check no
  max neighbors/atom: 2000, page size: 100000
  master list distance cutoff = 8.3943324
  ghost atom cutoff = 8.3943324
  binsize = 4.1971662, bins = 5 5 5
  1 neighbor lists, perpetual/occasional/extra = 1 0 0
  (1) pair eam/alloy, perpetual
      attributes: half, newton on
      pair build: half/bin/atomonly/newton
      stencil: half/bin/3d
      bin: standard
Per MPI rank memory allocation (min/avg/max) = 4.498 | 4.498 | 4.498 Mbytes
   Step          Temp          Press          Volume         PotEng         KinEng         TotEng        Enthalpy   
         0   2000.0781     -13044.459      5880.7351     -1986.3195      129.00666     -1857.3128     -1905.192     
      1000   1007.2878      35191.901      5880.7351     -1922.259       64.970883     -1857.2882     -1728.1175    
      2000   1060.417       33180.046      5880.7351     -1925.6942      68.397757     -1857.2965     -1735.5102    
      3000   1030.9949      34514.917      5880.7351     -1923.7961      66.500012     -1857.2961     -1730.6102    
      4000   1035.9175      33345.023      5880.7351     -1924.1213      66.817521     -1857.3038     -1734.912     
      5000   952.84257      38393.027      5880.7351     -1918.7557      61.45912      -1857.2965     -1716.3762    
      6000   967.56856      36515.975      5880.7351     -1919.7019      62.408958     -1857.293      -1723.2623    
      7000   1058.6277      32683.91       5880.7351     -1925.5782      68.282348     -1857.2959     -1737.3307    
      8000   1008.3632      34792.504      5880.7351     -1922.3334      65.040244     -1857.2931     -1729.5884    
      9000   1028.8277      34489.689      5880.7351     -1923.6481      66.360223     -1857.2879     -1730.6947    
     10000   975.08932      36433.406      5880.7351     -1920.1829      62.894053     -1857.2889     -1723.5613    
     11000   1013.4622      34788.679      5880.7351     -1922.6679      65.369133     -1857.2987     -1729.6081    
     12000   1013.4653      35065.889      5880.7351     -1922.6685      65.369333     -1857.2992     -1728.591     
     13000   1062.6386      32369.138      5880.7351     -1925.8449      68.541052     -1857.3038     -1738.494     
     14000   1004.4409      35870.913      5880.7351     -1922.0829      64.787255     -1857.2956     -1725.6326    
     15000   985.93685      36005.676      5880.7351     -1920.8911      63.593728     -1857.2974     -1725.1397    
     16000   1043.8131      33326.461      5880.7351     -1924.616       67.326792     -1857.2892     -1734.9656    
     17000   972.67947      36352.888      5880.7351     -1920.0181      62.738616     -1857.2795     -1723.8474    
     18000   1067.7028      32786.151      5880.7351     -1926.148       68.867699     -1857.2803     -1736.9398    
     19000   1011.8115      34995.025      5880.7351     -1922.5394      65.262666     -1857.2767     -1728.8287    
     20000   1030.7932      34566.882      5880.7351     -1923.7529      66.486999     -1857.2659     -1730.3894    
     21000   962.74981      36232.015      5880.7351     -1919.3575      62.098145     -1857.2594     -1724.271     
     22000   990.47088      36539.884      5880.7351     -1921.1467      63.886177     -1857.2605     -1723.1421    
     23000   1017.5464      34627.108      5880.7351     -1922.8902      65.632568     -1857.2576     -1730.16      
     24000   1038.7582      33019.278      5880.7351     -1924.252       67.000746     -1857.2512     -1736.0551    
     25000   978.39493      36318.577      5880.7351     -1920.3493      63.107268     -1857.2421     -1723.9359    
     26000   995.92148      35300.28       5880.7351     -1921.4747      64.237744     -1857.237      -1727.6685    
     27000   992.54285      35251.215      5880.7351     -1921.2467      64.01982      -1857.2269     -1727.8384    
     28000   995.20719      35867.478      5880.7351     -1921.4169      64.191672     -1857.2253     -1725.5749    
     29000   978.15519      36920.37       5880.7351     -1920.3108      63.091804     -1857.219      -1721.704     
     30000   1011.1381      34355.909      5880.7351     -1922.4363      65.219227     -1857.2171     -1731.1149    
     31000   985.59291      35646.105      5880.7351     -1920.7846      63.571543     -1857.213      -1726.3752    
     32000   1033.1636      33342.95       5880.7351     -1923.8455      66.63989      -1857.2056     -1734.8214    
     33000   1036.757       33896.445      5880.7351     -1924.0662      66.871671     -1857.1945     -1732.7788    
     34000   1015.3072      34658.436      5880.7351     -1922.6683      65.48814      -1857.1802     -1729.9675    
     35000   1051.0023      32893.593      5880.7351     -1924.9748      67.790499     -1857.1843     -1736.4495    
     36000   1055.0972      33000.784      5880.7351     -1925.2247      68.05463      -1857.1701     -1736.0418    
     37000   994.79707      35560.512      5880.7351     -1921.3191      64.165219     -1857.1539     -1726.6302    
     38000   1028.3199      34515.531      5880.7351     -1923.4692      66.327467     -1857.1417     -1730.4536    
     39000   992.27298      35716.203      5880.7351     -1921.136       64.002413     -1857.1336     -1726.0385    
     40000   1064.9605      32390.069      5880.7351     -1925.8057      68.690815     -1857.1149     -1738.2282    
     41000   1057.7288      32960.687      5880.7351     -1925.3246      68.22437      -1857.1002     -1736.1191    
     42000   1011.4118      34454.067      5880.7351     -1922.3114      65.236883     -1857.0745     -1730.612     
     43000   984.10753      36837.401      5880.7351     -1920.527       63.475735     -1857.0513     -1721.8409    
     44000   1018.0978      34624.829      5880.7351     -1922.7002      65.668135     -1857.0321     -1729.9428    
     45000   993.50652      35442.763      5880.7351     -1921.0962      64.081978     -1857.0142     -1726.9227    
     46000   982.62018      35814.814      5880.7351     -1920.3724      63.3798       -1856.9926     -1725.5355    
     47000   984.68433      35944.774      5880.7351     -1920.4818      63.512939     -1856.9689     -1725.0348    
     48000   1025.9794      34809.603      5880.7351     -1923.1235      66.176508     -1856.9469     -1729.1795    
     49000   1014.0378      35053.005      5880.7351     -1922.3212      65.406261     -1856.915      -1728.2541    
     50000   1047.6575      34284.653      5880.7351     -1924.467       67.57476      -1856.8922     -1731.0516    
     51000   1013.4508      34878.726      5880.7351     -1922.2328      65.368399     -1856.8644     -1728.8433    
     52000   1048.7334      33023.776      5880.7351     -1924.4886      67.644157     -1856.8445     -1735.6318    
     53000   1030.9045      34245.968      5880.7351     -1923.3097      66.494175     -1856.8155     -1731.1168    
     54000   1010.278       36093.665      5880.7351     -1921.9496      65.163753     -1856.7858     -1724.3053    
     55000   1018.8241      35262.614      5880.7351     -1922.4674      65.714984     -1856.7524     -1727.3222    
     56000   1009.6734      35063.553      5880.7351     -1921.8473      65.124754     -1856.7225     -1728.0229    
     57000   1051.9948      33680.049      5880.7351     -1924.5365      67.854518     -1856.682      -1733.0605    
     58000   1016.1117      34856.761      5880.7351     -1922.1849      65.540028     -1856.6449     -1728.7043    
     59000   994.44214      36577.535      5880.7351     -1920.7488      64.142326     -1856.6065     -1722.3499    
     60000   1059.3955      32786.347      5880.7351     -1924.8991      68.33187      -1856.5672     -1736.2261    
     61000   1043.5823      33926.533      5880.7351     -1923.8336      67.311908     -1856.5217     -1731.9955    
     62000   1017.6188      34758.589      5880.7351     -1922.1158      65.637239     -1856.4785     -1728.8983    
     63000   1015.6403      35128.145      5880.7351     -1921.9504      65.509625     -1856.4408     -1727.5041    
     64000   1061.8433      32694.114      5880.7351     -1924.8832      68.489758     -1856.3935     -1736.3908    
     65000   1041.9672      34489.448      5880.7351     -1923.5542      67.207731     -1856.3465     -1729.7541    
     66000   1006.5784      35879.22       5880.7351     -1921.2311      64.925124     -1856.306      -1724.6125    
     67000   1007.9504      35767.8        5880.7351     -1921.2647      65.013618     -1856.2511     -1724.9666    
     68000   995.95163      36347.099      5880.7351     -1920.4394      64.239689     -1856.1997     -1722.7889    
     69000   1073.3011      33025.203      5880.7351     -1925.3751      69.22879      -1856.1463     -1734.9284    
     70000   1004.5354      36238.026      5880.7351     -1920.8807      64.793348     -1856.0873     -1723.0768    
     71000   996.59171      36828.078      5880.7351     -1920.3129      64.280975     -1856.0319     -1720.8557    
     72000   1042.5833      34655.844      5880.7351     -1923.2237      67.247472     -1855.9762     -1728.7731    
     73000   1045.3476      34123.164      5880.7351     -1923.3471      67.425772     -1855.9213     -1730.6734    
     74000   962.59176      38939.513      5880.7351     -1917.9429      62.087951     -1855.855      -1712.9288    
     75000   1029.0953      35063.608      5880.7351     -1922.1671      66.377484     -1855.7896     -1727.0898    
     76000   1012.4437      36151.769      5880.7351     -1921.0249      65.30344      -1855.7215     -1723.0276    
     77000   1032.4882      35416.5        5880.7351     -1922.2504      66.596326     -1855.6541     -1725.659     
     78000   1019.0476      36365.504      5880.7351     -1921.312       65.729396     -1855.5826     -1722.1042    
     79000   1038.617       35186.221      5880.7351     -1922.5131      66.991642     -1855.5214     -1726.3716    
     80000   1008.7248      36660.487      5880.7351     -1920.5169      65.063569     -1855.4533     -1720.8922    
     81000   1027.0113      35721.96       5880.7351     -1921.6257      66.243066     -1855.3826     -1724.2664    
     82000   1060.7818      34901.229      5880.7351     -1923.7237      68.421285     -1855.3024     -1727.1986    
     83000   1049.1464      34431.256      5880.7351     -1922.9001      67.670796     -1855.2293     -1728.8506    
     84000   1024.7495      35623.091      5880.7351     -1921.2512      66.097177     -1855.1541     -1724.4007    
     85000   978.9535       39136.781      5880.7351     -1918.2162      63.143296     -1855.073      -1711.4227    
     86000   1020.3269      35831.122      5880.7351     -1920.7996      65.811917     -1854.9877     -1723.4708    
     87000   1014.1997      36514.405      5880.7351     -1920.3229      65.416703     -1854.9062     -1720.8813    
     88000   1009.4121      37528.472      5880.7351     -1919.9275      65.107898     -1854.8196     -1717.0726    
     89000   1013.8614      37639.254      5880.7351     -1920.1351      65.394885     -1854.7402     -1716.5866    
     90000   994.82187      38493.598      5880.7351     -1918.8175      64.166819     -1854.6507     -1713.3613    
     91000   1080.8932      34391.041      5880.7351     -1924.2746      69.71849      -1854.5561     -1728.325     
     92000   1046.2922      35869.243      5880.7351     -1921.9538      67.486697     -1854.4671     -1722.8102    
     93000   998.32699      38137.841      5880.7351     -1918.7663      64.392902     -1854.3734     -1714.3897    
     94000   1040.08        35660.708      5880.7351     -1921.375       67.086007     -1854.289      -1723.3976    
     95000   975.53498      39377.794      5880.7351     -1917.1161      62.922798     -1854.1933     -1709.6585    
     96000   1054.0309      35458.504      5880.7351     -1922.084       67.985848     -1854.0982     -1723.9489    
     97000   1040.3969      36031.435      5880.7351     -1921.1035      67.106443     -1853.9971     -1721.7449    
     98000   1077.9095      34652.099      5880.7351     -1923.4245      69.526036     -1853.8985     -1726.7091    
     99000   1039.0372      36718.79       5880.7351     -1920.8122      67.018741     -1853.7934     -1719.0183    
    100000   1061.3961      35864.64       5880.7351     -1922.1598      68.460912     -1853.6989     -1722.0589    
    101000   1049.188       35951.24       5880.7351     -1921.2641      67.673476     -1853.5906     -1721.6328    
    102000   1060.0228      35884.175      5880.7351     -1921.8563      68.372331     -1853.484      -1721.7723    
    103000   1019.0445      38039.971      5880.7351     -1919.1072      65.729198     -1853.378      -1713.7535    
    104000   989.69062      39520.007      5880.7351     -1917.1048      63.835849     -1853.269      -1708.2121    
    105000   1052.7445      36623.967      5880.7351     -1921.0657      67.902877     -1853.1628     -1718.7358    
    106000   1041.2389      36632.523      5880.7351     -1920.2297      67.160757     -1853.069      -1718.6105    
    107000   1039.5144      37322.265      5880.7351     -1920.0162      67.049524     -1852.9667     -1715.9766    
    108000   1090.7016      35322.376      5880.7351     -1923.2109      70.351137     -1852.8597     -1723.2101    
    109000   1045.845       37862.88       5880.7351     -1920.2098      67.457852     -1852.7519     -1713.7775    
    110000   1044.9726      37907.327      5880.7351     -1920.0519      67.401581     -1852.6503     -1713.5127    
    111000   1064.6386      37180.59       5880.7351     -1921.21        68.670058     -1852.54       -1716.0698    
    112000   1056.5405      36606.307      5880.7351     -1920.5795      68.147722     -1852.4318     -1718.0696    
    113000   1101.4686      34968.365      5880.7351     -1923.3695      71.045622     -1852.3239     -1723.9737    
    114000   1080.967       36784.158      5880.7351     -1921.9382      69.723253     -1852.215      -1717.2       
    115000   1092.62        35367.161      5880.7351     -1922.5781      70.474878     -1852.1032     -1722.2893    
    116000   1060.767       37221.159      5880.7351     -1920.4207      68.42033      -1852.0004     -1715.3814    
    117000   1024.6884      39162.382      5880.7351     -1917.9898      66.093236     -1851.8966     -1708.1524    
    118000   1056.6227      37754.22       5880.7351     -1919.9461      68.153021     -1851.7931     -1713.2175    
    119000   1080.7433      36919.334      5880.7351     -1921.3973      69.708821     -1851.6885     -1716.1773    
    120000   1023.5712      39726.952      5880.7351     -1917.6057      66.021174     -1851.5845     -1705.768     
    121000   1058.817       37847.83       5880.7351     -1919.7728      68.294558     -1851.4782     -1712.559     
    122000   1059.9975      37440.214      5880.7351     -1919.751       68.370702     -1851.3803     -1713.9573    
    123000   1069.6173      37438.98       5880.7351     -1920.2664      68.991186     -1851.2752     -1713.8567    
    124000   1057.0956      37748.164      5880.7351     -1919.3606      68.183527     -1851.177      -1712.6237    
    125000   1075.1777      36880.785      5880.7351     -1920.4317      69.349833     -1851.0819     -1715.7122    
    126000   1076.1278      36991.101      5880.7351     -1920.3992      69.411119     -1850.988      -1715.2134    
    127000   1031.1152      38386.683      5880.7351     -1917.3963      66.507769     -1850.8885     -1709.9915    
    128000   1059.1675      38351.117      5880.7351     -1919.1137      68.317166     -1850.7965     -1710.0301    
    129000   1064.6123      37826.098      5880.7351     -1919.3673      68.668359     -1850.6989     -1711.8595    
    130000   1097.2078      36713.18       5880.7351     -1921.3676      70.770794     -1850.5968     -1715.8423    
    131000   1052.3487      38973.956      5880.7351     -1918.3764      67.877344     -1850.4991     -1707.4465    
    132000   1052.025       39269.267      5880.7351     -1918.2694      67.856464     -1850.4129     -1706.2764    
    133000   1064.1159      38892.571      5880.7351     -1918.9542      68.636341     -1850.3178     -1707.5639    
    134000   1040.3478      38604.089      5880.7351     -1917.3245      67.103281     -1850.2213     -1708.5262    
    135000   1107.1655      36638.611      5880.7351     -1921.5406      71.413075     -1850.1276     -1715.6468    
    136000   1030.4477      40107.089      5880.7351     -1916.5012      66.464713     -1850.0365     -1702.8248    
    137000   1035.0222      40220.285      5880.7351     -1916.7059      66.759775     -1849.9461     -1702.3189    
    138000   1042.5629      40180.29       5880.7351     -1917.1056      67.246156     -1849.8595     -1702.3791    
    139000   1077.3048      38779.412      5880.7351     -1919.2577      69.487038     -1849.7707     -1707.4322    
    140000   1067.7297      39263.942      5880.7351     -1918.5531      68.869431     -1849.6837     -1705.5667    
    141000   1101.8408      37974.513      5880.7351     -1920.6674      71.069625     -1849.5977     -1710.2136    
    142000   1116.8595      37348.265      5880.7351     -1921.5492      72.038344     -1849.5108     -1712.4253    
    143000   1074.5177      39098.735      5880.7351     -1918.7382      69.307267     -1849.4309     -1705.9203    
    144000   1042.8289      40628.713      5880.7351     -1916.614       67.263312     -1849.3506     -1700.2243    
    145000   1099.818       37354.498      5880.7351     -1920.2154      70.939157     -1849.2762     -1712.1678    
    146000   1074.2694      38874.103      5880.7351     -1918.4789      69.291246     -1849.1877     -1706.5016    
    147000   1054.1441      40465.734      5880.7351     -1917.1039      67.99315      -1849.1107     -1700.5826    
    148000   1051.9148      40313.889      5880.7351     -1916.8847      67.849358     -1849.0353     -1701.0645    
    149000   1044.7429      40913.768      5880.7351     -1916.3444      67.386765     -1848.9576     -1698.785     
    150000   1124.2464      37140.05       5880.7351     -1921.3984      72.514807     -1848.8836     -1712.5622    
    151000   1028.8738      41921.181      5880.7351     -1915.1624      66.363196     -1848.7992     -1694.9289    
    152000   1052.4772      41466.849      5880.7351     -1916.6089      67.885634     -1848.7232     -1696.5205    
    153000   1080.9205      39138.221      5880.7351     -1918.3621      69.720248     -1848.6418     -1704.9863    
    154000   1117.6774      37317.869      5880.7351     -1920.6569      72.091099     -1848.5658     -1711.5918    
    155000   1094.5283      38756.439      5880.7351     -1919.0789      70.597962     -1848.4809     -1706.2267    
    156000   1060.4624      41105.925      5880.7351     -1916.7914      68.400684     -1848.3907     -1697.5128    
    157000   1082.6987      39220.306      5880.7351     -1918.1467      69.834946     -1848.3118     -1704.355     
    158000   1121.3478      37601.428      5880.7351     -1920.5602      72.327841     -1848.2323     -1710.2176    
    159000   1137.9263      37347.913      5880.7351     -1921.549       73.39717      -1848.1518     -1711.0675    
    160000   1054.47        40707.437      5880.7351     -1916.0756      68.014174     -1848.0614     -1698.6461    
    161000   1078.6583      39985.471      5880.7351     -1917.5485      69.574336     -1847.9741     -1701.2088    
    162000   1089.9854      39188.294      5880.7351     -1918.1975      70.304944     -1847.8926     -1704.0533    
    163000   1056.9085      40584.894      5880.7351     -1915.9807      68.171459     -1847.8093     -1698.8438    
    164000   1087.2042      39407.096      5880.7351     -1917.8558      70.125551     -1847.7303     -1703.0878    
    165000   1047.7378      41698.468      5880.7351     -1915.226       67.579938     -1847.6461     -1694.5932    
    166000   1118.6242      38666.271      5880.7351     -1919.7144      72.152171     -1847.5623     -1705.639     
    167000   1126.9988      38381.355      5880.7351     -1920.1669      72.69234      -1847.4746     -1706.5971    
    168000   1083.6607      40408.298      5880.7351     -1917.291       69.896997     -1847.394      -1699.0767    
    169000   1093.2671      39558.585      5880.7351     -1917.8266      70.516615     -1847.31       -1702.1116    
    170000   1119.8518      38176.128      5880.7351     -1919.4511      72.231353     -1847.2198     -1707.0956    
    171000   1044.1825      42265.277      5880.7351     -1914.4807      67.350617     -1847.1301     -1691.9968    
    172000   1023.8223      43305.617      5880.7351     -1913.0821      66.037369     -1847.0447     -1688.0929    
    173000   1093.6934      40082.562      5880.7351     -1917.5051      70.544114     -1846.961      -1699.8393    
    174000   1105.5058      40277.126      5880.7351     -1918.1792      71.306022     -1846.8731     -1699.0373    
    175000   1115.6504      39701.2        5880.7351     -1918.7492      71.960357     -1846.7888     -1701.0669    
    176000   1095.9301      39855.291      5880.7351     -1917.3885      70.688381     -1846.7001     -1700.4126    
    177000   1117.1796      39467.218      5880.7351     -1918.6663      72.058995     -1846.6073     -1701.7442    
    178000   1132.2236      38290.464      5880.7351     -1919.5456      73.029339     -1846.5163     -1705.9724    
    179000   1062.8177      41928.055      5880.7351     -1914.9724      68.552608     -1846.4198     -1692.5243    
    180000   1082.221       40860.989      5880.7351     -1916.1268      69.804136     -1846.3227     -1696.3438    
    181000   1041.7667      43875.774      5880.7351     -1913.4199      67.1948       -1846.2251     -1685.1806    
    182000   1146.9527      38208.812      5880.7351     -1920.1089      73.97938      -1846.1295     -1705.8854    
    183000   1089.9482      41331.611      5880.7351     -1916.3328      70.302544     -1846.0302     -1694.3239    
    184000   1094.14        40626.81       5880.7351     -1916.4994      70.572919     -1845.9265     -1696.8072    
    185000   1120.0687      40612.806      5880.7351     -1918.0623      72.24534      -1845.817      -1696.749     
    186000   1120.5974      40318.167      5880.7351     -1917.9891      72.279441     -1845.7096     -1697.7231    
    187000   1103.1118      40485.792      5880.7351     -1916.7604      71.15161      -1845.6088     -1697.0071    
    188000   1103.5851      41649.902      5880.7351     -1916.6878      71.182133     -1845.5057     -1692.6311    
    189000   1081.5346      42028.514      5880.7351     -1915.1486      69.759857     -1845.3887     -1691.1245    
    190000   1106.2578      40787.149      5880.7351     -1916.6382      71.354527     -1845.2837     -1695.5758    
    191000   1099.5504      42476.356      5880.7351     -1916.087       70.921894     -1845.1651     -1689.2571    
    192000   1098.1885      41847.575      5880.7351     -1915.887       70.834052     -1845.053      -1691.4528    
    193000   1088.5415      41888.863      5880.7351     -1915.1589      70.211811     -1844.9471     -1691.1955    
    194000   1109.5373      41691.388      5880.7351     -1916.4012      71.566059     -1844.8352     -1691.8083    
    195000   1084.9545      42824.645      5880.7351     -1914.7029      69.980448     -1844.7225     -1687.5361    
    196000   1112.2477      41362.188      5880.7351     -1916.3482      71.740883     -1844.6073     -1692.7888    
    197000   1120.3526      41316.14       5880.7351     -1916.7581      72.263654     -1844.4944     -1692.8449    
    198000   1076.0952      43528.213      5880.7351     -1913.7855      69.409016     -1844.3765     -1684.6076    
    199000   1059.0564      44818.381      5880.7351     -1912.5712      68.309999     -1844.2612     -1679.7568    
    200000   1140.8118      40507.437      5880.7351     -1917.7342      73.583285     -1844.1509     -1695.4697    
    201000   1175.1193      39002.312      5880.7351     -1919.8328      75.79615      -1844.0367     -1700.88      
    202000   1161.2386      40163.673      5880.7351     -1918.8203      74.900831     -1843.9195     -1696.5001    
    203000   1162.0646      40287.949      5880.7351     -1918.7651      74.954111     -1843.811      -1695.9354    
    204000   1111.8656      42771.121      5880.7351     -1915.4094      71.716235     -1843.6932     -1686.7032    
    205000   1114.5113      41534.875      5880.7351     -1915.458       71.886884     -1843.5711     -1691.1187    
    206000   1103.1696      43361.976      5880.7351     -1914.6014      71.155338     -1843.4461     -1684.2874    
    207000   1178.0921      39793.283      5880.7351     -1919.3031      75.987898     -1843.3152     -1697.2553    
    208000   1081.6671      43426.819      5880.7351     -1912.9586      69.768407     -1843.1902     -1683.7936    
    209000   1103.7745      43354.136      5880.7351     -1914.2484      71.194351     -1843.054      -1683.9241    
    210000   1137.1242      42075.792      5880.7351     -1916.2708      73.345436     -1842.9253     -1688.4876    
    211000   1127.9893      42846.494      5880.7351     -1915.5607      72.756223     -1842.8045     -1685.5379    
    212000   1158.6809      40949.325      5880.7351     -1917.4092      74.735857     -1842.6733     -1692.3702    
    213000   1173.6965      40712.44       5880.7351     -1918.2571      75.704376     -1842.5527     -1693.1191    
    214000   1108.2599      43874.069      5880.7351     -1913.9064      71.483665     -1842.4227     -1681.3844    
    215000   1132.81        42935.108      5880.7351     -1915.3582      73.067163     -1842.2911     -1684.6992    
    216000   1125.763       42730.282      5880.7351     -1914.7681      72.61263      -1842.1554     -1685.3154    
    217000   1124.9203      43560.257      5880.7351     -1914.5816      72.558273     -1842.0233     -1682.1368    
    218000   1152.0356      42096.48       5880.7351     -1916.1881      74.307231     -1841.8808     -1687.3671    
    219000   1156.5157      42247.783      5880.7351     -1916.3403      74.5962       -1841.7441     -1686.675     
    220000   1106.5172      43298.207      5880.7351     -1912.9756      71.371258     -1841.6044     -1682.6797    
    221000   1143.2439      42039.756      5880.7351     -1915.2131      73.740157     -1841.4729     -1687.1674    
    222000   1163.7442      42828.23       5880.7351     -1916.4045      75.062445     -1841.342      -1684.1425    
    223000   1170.8957      41708.677      5880.7351     -1916.732       75.523725     -1841.2082     -1688.1179    
    224000   1115.7811      44948.866      5880.7351     -1913.0327      71.968784     -1841.0639     -1676.0806    
    225000   1162.4922      42589.752      5880.7351     -1915.9052      74.981688     -1840.9235     -1684.5992    
    226000   1189.532       41489.149      5880.7351     -1917.5126      76.725783     -1840.7868     -1688.5023    
    227000   1184.5343      41688.45       5880.7351     -1917.0477      76.403426     -1840.6442     -1687.6282    
    228000   1101.4415      45010.033      5880.7351     -1911.5449      71.043868     -1840.501      -1675.2932    
    229000   1089.916       46146.809      5880.7351     -1910.6642      70.300468     -1840.3637     -1670.9834    
    230000   1152.0883      43589.304      5880.7351     -1914.5339      74.310632     -1840.2233     -1680.2302    
    231000   1191.2083      41829.627      5880.7351     -1916.9164      76.833902     -1840.0825     -1686.5483    
    232000   1072.4779      47506.677      5880.7351     -1909.1116      69.175696     -1839.9359     -1665.5642    
    233000   1150.8985      44432.011      5880.7351     -1914.0251      74.233887     -1839.7912     -1676.705     
    234000   1194.4075      42685.789      5880.7351     -1916.695       77.040256     -1839.6547     -1682.978     
    235000   1131.798       45377.597      5880.7351     -1912.516       73.001889     -1839.5142     -1672.9572    
    236000   1147.9851      44002.424      5880.7351     -1913.4151      74.045969     -1839.3691     -1677.8597    
    237000   1175.2873      43097.401      5880.7351     -1915.025       75.806985     -1839.218      -1681.0305    
    238000   1159.3998      43763.941      5880.7351     -1913.8607      74.782228     -1839.0785     -1678.4444    
    239000   1131.9433      45065.156      5880.7351     -1911.9445      73.011261     -1838.9333     -1673.5231    
    240000   1163.3367      43583.923      5880.7351     -1913.8311      75.036164     -1838.7949     -1678.8216    
    241000   1152.6786      45112.408      5880.7351     -1913.001       74.348706     -1838.6523     -1673.0688    
    242000   1128.1225      45861.655      5880.7351     -1911.2731      72.764817     -1838.5083     -1670.1746    
    243000   1201.1789      43046.218      5880.7351     -1915.834       77.477015     -1838.357      -1680.3573    
    244000   1116.5692      47226.981      5880.7351     -1910.2319      72.019621     -1838.2123     -1664.8673    
    245000   1159.2412      45095.413      5880.7351     -1912.8361      74.771998     -1838.0641     -1672.5429    
    246000   1141.8172      45506.679      5880.7351     -1911.5685      73.648138     -1837.9204     -1670.8896    
    247000   1187.7597      43049.605      5880.7351     -1914.3839      76.611465     -1837.7725     -1679.7603    
    248000   1168.8629      44993.526      5880.7351     -1913.0166      75.392609     -1837.624      -1672.4767    
    249000   1171.0634      45492.77       5880.7351     -1913.0126      75.534539     -1837.4781     -1670.4984    
    250000   1196.7165      44301.059      5880.7351     -1914.5195      77.189189     -1837.3303     -1674.7248    
    251000   1148.9766      45771.155      5880.7351     -1911.2947      74.109923     -1837.1847     -1669.1833    
    252000   1163.3332      45813.626      5880.7351     -1912.0759      75.035936     -1837.0399     -1668.8825    
    253000   1127.5589      47216.539      5880.7351     -1909.6175      72.728464     -1836.8891     -1663.5824    
    254000   1168.9481      45806.702      5880.7351     -1912.1395      75.398103     -1836.7414     -1668.6095    
    255000   1178.3165      45246.419      5880.7351     -1912.5962      76.002372     -1836.5939     -1670.5184    
    256000   1216.6814      43993.015      5880.7351     -1914.9299      78.476937     -1836.453      -1674.9781    
    257000   1171.8458      46332.676      5880.7351     -1911.8962      75.585005     -1836.3112     -1666.2487    
    258000   1182.1219      45971.582      5880.7351     -1912.4168      76.247825     -1836.1689     -1667.4318    
    259000   1251.01        42212.033      5880.7351     -1916.7094      80.691162     -1836.0183     -1681.0804    
    260000   1155.007       47374.441      5880.7351     -1910.3605      74.498891     -1835.8616     -1661.9753    
    261000   1186.727       45764.651      5880.7351     -1912.2637      76.544852     -1835.7188     -1667.7412    
    262000   1148.4126      47742.028      5880.7351     -1909.6433      74.073543     -1835.5697     -1660.3342    
    263000   1220.8327      44836.693      5880.7351     -1914.1651      78.744704     -1835.4204     -1670.8488    
    264000   1208.8346      44722.951      5880.7351     -1913.239       77.970812     -1835.2682     -1671.1141    
    265000   1235.2034      44378.26       5880.7351     -1914.7822      79.67162      -1835.1105     -1672.2216    
    266000   1185.1221      45792.955      5880.7351     -1911.3923      76.441336     -1834.9509     -1666.8694    
    267000   1169.1841      47638.86       5880.7351     -1910.2149      75.413326     -1834.8016     -1659.9447    
    268000   1190.4919      47099.162      5880.7351     -1911.4379      76.787695     -1834.6502     -1661.7743    
    269000   1214.8863      46152.09       5880.7351     -1912.8523      78.361156     -1834.4912     -1665.0915    
    270000   1162.5537      48411.566      5880.7351     -1909.3113      74.98566      -1834.3257     -1656.6326    
    271000   1221.8234      46525.898      5880.7351     -1912.9829      78.808602     -1834.1743     -1663.4026    
    272000   1232.8316      46095.449      5880.7351     -1913.5277      79.518641     -1834.009      -1664.8172    
    273000   1170.5458      48630.281      5880.7351     -1909.3476      75.501152     -1833.8464     -1655.3506    
    274000   1218.0385      46287.531      5880.7351     -1912.2615      78.564474     -1833.6971     -1663.8002    
    275000   1161.1671      49358.812      5880.7351     -1908.4391      74.896222     -1833.5428     -1652.373     
    276000   1172.3585      49018.303      5880.7351     -1908.9971      75.618073     -1833.3791     -1653.459     
    277000   1183.0813      48553.504      5880.7351     -1909.5315      76.309704     -1833.2218     -1655.0078    
    278000   1237.7136      45613.451      5880.7351     -1912.8943      79.833531     -1833.0608     -1665.6382    
    279000   1196.3749      48268.902      5880.7351     -1910.0656      77.167155     -1832.8985     -1655.7291    
    280000   1177.8428      48363.049      5880.7351     -1908.7173      75.97182      -1832.7454     -1655.2305    
    281000   1208.6828      47128.9        5880.7351     -1910.5517      77.961023     -1832.5906     -1659.6056    
    282000   1195.7342      48765.643      5880.7351     -1909.5593      77.125829     -1832.4335     -1653.4408    
    283000   1122.4515      52508.164      5880.7351     -1904.6602      72.399032     -1832.2612     -1639.5317    
    284000   1246.1522      47520.535      5880.7351     -1912.4807      80.37783      -1832.1028     -1657.6803    
    285000   1205.1111      47410.542      5880.7351     -1909.6766      77.730647     -1831.9459     -1657.9271    
    286000   1190.9061      49237.861      5880.7351     -1908.5994      76.814414     -1831.785      -1651.0591    
    287000   1200.1354      49254.163      5880.7351     -1909.0313      77.409706     -1831.6216     -1650.8359    
    288000   1153.1217      51158.986      5880.7351     -1905.831       74.377288     -1831.4537     -1643.6764    
    289000   1255.0284      47041.968      5880.7351     -1912.2372      80.95035      -1831.2868     -1658.6209    
    290000   1272.8647      45929.756      5880.7351     -1913.2061      82.100805     -1831.1053     -1662.5216    
    291000   1223.2947      48052.31       5880.7351     -1909.8403      78.903505     -1830.9368     -1654.5624    
    292000   1233.9915      48510.15       5880.7351     -1910.3659      79.593457     -1830.7724     -1652.7175    
    293000   1215.0802      48734.696      5880.7351     -1908.9764      78.373659     -1830.6027     -1651.7236    
    294000   1186.7528      50672.623      5880.7351     -1906.9752      76.546518     -1830.4287     -1644.4365    
    295000   1250.101       47471.95       5880.7351     -1910.8928      80.632528     -1830.2603     -1656.0161    
    296000   1178.9084      51809.753      5880.7351     -1906.1363      76.04055      -1830.0958     -1639.9298    
    297000   1196.1143      51025.793      5880.7351     -1907.0753      77.150344     -1829.925      -1642.6365    
    298000   1196.4113      50918.66       5880.7351     -1906.9374      77.169498     -1829.7679     -1642.8727    
    299000   1189.0072      50981.263      5880.7351     -1906.2905      76.69193      -1829.5986     -1642.4736    
    300000   1155.5602      53131.282      5880.7351     -1903.9553      74.534571     -1829.4207     -1634.4041    
    301000   1239.1989      50717.382      5880.7351     -1909.1715      79.929338     -1829.2421     -1643.0857    
    302000   1274.2248      47618.137      5880.7351     -1911.256       82.188532     -1829.0675     -1654.2867    
    303000   1246.6682      49255.5        5880.7351     -1909.31        80.411114     -1828.8989     -1648.1083    
    304000   1196.5203      51194.61       5880.7351     -1905.9092      77.176533     -1828.7327     -1640.8246    
    305000   1267.2232      48201.711      5880.7351     -1910.3031      81.736926     -1828.5662     -1651.6435    
    306000   1191.4883      52037.198      5880.7351     -1905.2487      76.851964     -1828.3968     -1637.396     
    307000   1241.9275      50073.109      5880.7351     -1908.3412      80.105333     -1828.2359     -1644.4442    
    308000   1250.9621      50549.836      5880.7351     -1908.7483      80.68807      -1828.0602     -1642.5187    
    309000   1190.3846      53256.004      5880.7351     -1904.6694      76.780774     -1827.8886     -1632.4142    
    310000   1203.0648      52278.627      5880.7351     -1905.3089      77.598656     -1827.7102     -1635.8233    
    311000   1279.8785      48938.807      5880.7351     -1910.0812      82.553206     -1827.528      -1647.8997    
    312000   1251.2147      50311.042      5880.7351     -1908.0555      80.704364     -1827.3511     -1642.6861    
    313000   1223.53        52022.706      5880.7351     -1906.1027      78.918679     -1827.1841     -1636.2365    
    314000   1204.9457      51958.589      5880.7351     -1904.7198      77.719975     -1826.9998     -1636.2875    
    315000   1200.0552      53099.312      5880.7351     -1904.2248      77.404537     -1826.8203     -1631.9211    
    316000   1278.3753      49958.687      5880.7351     -1909.1069      82.456245     -1826.6506     -1643.2789    
    317000   1247.1124      52419.373      5880.7351     -1906.9149      80.439763     -1826.4751     -1634.0716    
    318000   1228.1797      52714.649      5880.7351     -1905.5223      79.218589     -1826.3037     -1632.8164    
    319000   1254.3572      51624.467      5880.7351     -1907.0344      80.907057     -1826.1273     -1636.6414    
    320000   1294.5516      50560.923      5880.7351     -1909.4487      83.499629     -1825.9491     -1640.3669    
    321000   1217.1259      53864.267      5880.7351     -1904.2699      78.505608     -1825.7643     -1628.0573    
    322000   1332.0412      48433.819      5880.7351     -1911.4972      85.917737     -1825.5794     -1647.8047    
    323000   1296.5371      50061.253      5880.7351     -1909.0406      83.627697     -1825.4129     -1641.6648    
    324000   1278.7063      51823.023      5880.7351     -1907.7191      82.477592     -1825.2415     -1635.0269    
    325000   1254.7999      51739.016      5880.7351     -1905.9981      80.935611     -1825.0625     -1635.1562    
    326000   1282.029       51609.16       5880.7351     -1907.564       82.691909     -1824.872      -1635.4424    
    327000   1259.0854      52929.884      5880.7351     -1905.8951      81.212031     -1824.6831     -1630.4057    
    328000   1236.632       54009.963      5880.7351     -1904.2781      79.763771     -1824.5144     -1626.2726    
    329000   1357.2074      48178.996      5880.7351     -1911.8796      87.540981     -1824.3386     -1647.4992    
    330000   1249.7464      53446.176      5880.7351     -1904.7651      80.609656     -1824.1554     -1627.983     
    331000   1296.4567      51338.414      5880.7351     -1907.5981      83.622512     -1823.9756     -1635.5397    
    332000   1284.4799      51763.944      5880.7351     -1906.6366      82.849996     -1823.7866     -1633.7888    
    333000   1254.1969      53913.598      5880.7351     -1904.5041      80.896717     -1823.6074     -1625.7193    
    334000   1200.8491      56260.057      5880.7351     -1900.8705      77.45574      -1823.4148     -1616.9141    
    335000   1313.7584      50675.692      5880.7351     -1907.9635      84.738485     -1823.225      -1637.2216    
    336000   1296.5241      51840.905      5880.7351     -1906.6766      83.626857     -1823.0497     -1632.7694    
    337000   1273.3545      52642.108      5880.7351     -1904.9984      82.132397     -1822.866      -1629.645     
    338000   1269.1671      53986.155      5880.7351     -1904.5512      81.862311     -1822.6889     -1624.5345    
    339000   1287.0148      53784.443      5880.7351     -1905.5153      83.013501     -1822.5018     -1625.0878    
    340000   1280.2429      53449.442      5880.7351     -1904.8915      82.576707     -1822.3148     -1626.1304    
    341000   1281.0278      53794.621      5880.7351     -1904.7569      82.627332     -1822.1296     -1624.6782    
    342000   1297.3885      53019.699      5880.7351     -1905.6243      83.682612     -1821.9417     -1627.3347    
    343000   1237.2025      55717.369      5880.7351     -1901.5502      79.800566     -1821.7497     -1617.2409    
    344000   1301.2956      53391.417      5880.7351     -1905.4943      83.934622     -1821.5596     -1625.5882    
    345000   1294.5612      53884.788      5880.7351     -1904.8685      83.500248     -1821.3682     -1623.5859    
    346000   1340.3581      52221.972      5880.7351     -1907.6334      86.454188     -1821.1792     -1629.5002    
    347000   1299.3073      54611.999      5880.7351     -1904.7928      83.806377     -1820.9864     -1620.5349    
    348000   1268.2266      55505.559      5880.7351     -1902.5989      81.801645     -1820.7972     -1617.0659    
    349000   1295.8989      53891.058      5880.7351     -1904.1876      83.586535     -1820.601      -1622.7957    
    350000   1251.89        57094.888      5880.7351     -1901.1504      80.747925     -1820.4025     -1610.8376    
    351000   1324.8149      53582.429      5880.7351     -1905.6534      85.45164      -1820.2017     -1623.5292    
    352000   1271.316       55805.424      5880.7351     -1902.0189      82.000917     -1820.0179     -1615.186     
    353000   1256.9101      56421.802      5880.7351     -1900.8957      81.071722     -1819.824      -1612.7297    
    354000   1265.3801      57252.752      5880.7351     -1901.2378      81.618042     -1819.6198     -1609.4755    
    355000   1317.9857      54616.09       5880.7351     -1904.4378      85.011148     -1819.4266     -1618.9601    
    356000   1214.96        59094.102      5880.7351     -1897.601       78.365905     -1819.2351     -1602.3322    
    357000   1352.3198      53635.694      5880.7351     -1906.2627      87.225729     -1819.037      -1622.169     
    358000   1259.9812      58435.554      5880.7351     -1900.1083      81.269812     -1818.8385     -1604.3528    
    359000   1264.4065      56904.301      5880.7351     -1900.2137      81.555244     -1818.6585     -1609.7932    
    360000   1290.1476      55558.527      5880.7351     -1901.6782      83.21557      -1818.4627     -1614.537     
    361000   1353.3747      53923.58       5880.7351     -1905.5563      87.293767     -1818.2625     -1620.3378    
    362000   1320.9832      54907.277      5880.7351     -1903.273       85.204491     -1818.0685     -1616.5332    
    363000   1245.666       59005.634      5880.7351     -1898.2207      80.346468     -1817.8742     -1601.296     
    364000   1273.1245      57031.052      5880.7351     -1899.7956      82.117566     -1817.678      -1608.3474    
    365000   1308.6829      56256.642      5880.7351     -1901.8927      84.411108     -1817.4816     -1610.9935    
    366000   1341.709       54167.047      5880.7351     -1903.8309      86.541318     -1817.2896     -1618.4712    
    367000   1380.4189      54411.827      5880.7351     -1906.1339      89.038141     -1817.0958     -1617.379     
    368000   1338.7239      56201.866      5880.7351     -1903.2442      86.34878      -1816.8954     -1610.6083    
    369000   1365.7251      54482.084      5880.7351     -1904.7856      88.09038      -1816.6953     -1616.7206    
    370000   1300.2948      58639.106      5880.7351     -1900.3611      83.870073     -1816.491      -1601.2582    
    371000   1335.6267      56344.124      5880.7351     -1902.4497      86.149005     -1816.3007     -1609.4915    
    372000   1287.2565      58705.952      5880.7351     -1899.1307      83.029091     -1816.1016     -1600.6234    
    373000   1391.2227      54094.458      5880.7351     -1905.6364      89.734997     -1815.9014     -1617.3495    
    374000   1371.9295      54210.681      5880.7351     -1904.1947      88.49057      -1815.7041     -1616.7256    
    375000   1361.2131      56115.775      5880.7351     -1903.3068      87.79935      -1815.5074     -1609.5363    
    376000   1313.5147      58058.302      5880.7351     -1900.0232      84.722767     -1815.3005     -1602.1994    
    377000   1295.088       59700.838      5880.7351     -1898.637       83.534231     -1815.1028     -1595.9729    
    378000   1323.7367      58181.311      5880.7351     -1900.2771      85.382091     -1814.895      -1601.3425    
    379000   1364.7176      56047.015      5880.7351     -1902.7148      88.025395     -1814.6894     -1608.9707    
    380000   1333.4937      57772.225      5880.7351     -1900.4988      86.011424     -1814.4873     -1602.4363    
    381000   1292.0294      60392.404      5880.7351     -1897.6277      83.336943     -1814.2908     -1592.6225    
    382000   1260.3462      60997.59       5880.7351     -1895.3834      81.293353     -1814.09       -1590.2004    
    383000   1273.0433      61564.535      5880.7351     -1895.9929      82.112326     -1813.8806     -1587.91      
    384000   1320.3359      59915.531      5880.7351     -1898.8448      85.162741     -1813.6821     -1593.7641    
    385000   1359.374       56986.591      5880.7351     -1901.1532      87.68073      -1813.4725     -1604.3051    
    386000   1363.5929      56935.067      5880.7351     -1901.2083      87.952853     -1813.2554     -1604.2771    
    387000   1330.266       59889.601      5880.7351     -1898.8707      85.803239     -1813.0675     -1593.2447    
    388000   1324.1423      58874.545      5880.7351     -1898.2633      85.408254     -1812.8551     -1596.758     
    389000   1367.2488      58379.178      5880.7351     -1900.8253      88.188656     -1812.6366     -1598.3578    
    390000   1395.0751      57317.757      5880.7351     -1902.4234      89.983477     -1812.4399     -1602.057     
    391000   1322.8574      60746.099      5880.7351     -1897.5539      85.325374     -1812.2285     -1589.262     
    392000   1341.4735      59689.44       5880.7351     -1898.5432      86.52613      -1812.017      -1592.929     
    393000   1364.5529      59113.399      5880.7351     -1899.8279      88.014773     -1811.8132     -1594.8394    
    394000   1372.4242      59511.815      5880.7351     -1900.1345      88.522477     -1811.612      -1593.1759    
    395000   1317.8622      60274.193      5880.7351     -1896.41        85.003184     -1811.4068     -1590.1724    
    396000   1394.975       58428.131      5880.7351     -1901.1749      89.977018     -1811.1979     -1596.7394    
    397000   1344.204       60017.345      5880.7351     -1897.6885      86.702248     -1810.9862     -1590.6946    
    398000   1384.0546      58163.3        5880.7351     -1900.0408      89.272646     -1810.7682     -1597.2818    
    399000   1411.6971      57988.255      5880.7351     -1901.6206      91.055613     -1810.565      -1597.7211    
    400000   1310.7304      62136.862      5880.7351     -1894.8993      84.543175     -1810.3561     -1582.2848    
    401000   1351.2288      61429.023      5880.7351     -1897.2937      87.155357     -1810.1383     -1584.6652    
    402000   1371.8025      59817.709      5880.7351     -1898.4122      88.482375     -1809.9298     -1590.3709    
    403000   1400.8868      59521.83       5880.7351     -1900.0661      90.358334     -1809.7078     -1591.2349    
    404000   1378.5409      61108.792      5880.7351     -1898.4095      88.917006     -1809.4925     -1585.1947    
    405000   1374.4662      60952.415      5880.7351     -1897.9389      88.654188     -1809.2847     -1585.561     
    406000   1368.6274      61686.492      5880.7351     -1897.3452      88.27758      -1809.0676     -1582.6494    
    407000   1361.5226      62886.479      5880.7351     -1896.6721      87.819316     -1808.8527     -1578.03      
    408000   1420.5029      59648.992      5880.7351     -1900.2593      91.623594     -1808.6357     -1589.6961    
    409000   1387.0182      60694.746      5880.7351     -1897.8815      89.463802     -1808.4177     -1585.6397    
    410000   1451.2645      57913.514      5880.7351     -1901.8026      93.60774      -1808.1949     -1595.6252    
    411000   1400.1052      60940.877      5880.7351     -1898.2834      90.307925     -1807.9755     -1584.294     
    412000   1384.1034      62122.919      5880.7351     -1897.036       89.275796     -1807.7602     -1579.7401    
    413000   1447.2291      58951.162      5880.7351     -1900.8974      93.347451     -1807.55       -1591.1717    
    414000   1404.0803      60441.229      5880.7351     -1897.8829      90.564318     -1807.3186     -1585.4711    
    415000   1430.4375      60452.869      5880.7351     -1899.3709      92.264379     -1807.1066     -1585.2163    
    416000   1387.1477      62494.722      5880.7351     -1896.3645      89.472154     -1806.8923     -1577.5075    
    417000   1479.8116      58803.048      5880.7351     -1902.1238      95.449048     -1806.6748     -1590.8401    
    418000   1409.8078      61621.082      5880.7351     -1897.3866      90.933746     -1806.4529     -1580.2747    
    419000   1385.6342      62219.302      5880.7351     -1895.6063      89.374529     -1806.2318     -1577.8579    
    420000   1357.0355      64848.454      5880.7351     -1893.546       87.529892     -1806.0161     -1567.992     
    421000   1394.6377      63208.657      5880.7351     -1895.7462      89.955262     -1805.7909     -1573.7857    
    422000   1390.3767      63768.246      5880.7351     -1895.2587      89.680426     -1805.5783     -1571.519     
    423000   1423.0186      61437.446      5880.7351     -1897.1481      91.785858     -1805.3622     -1579.8581    
    424000   1427.6698      61208.422      5880.7351     -1897.2287      92.085862     -1805.1429     -1580.4794    
    425000   1417.8841      62720.615      5880.7351     -1896.3805      91.454677     -1804.9258     -1574.7119    
    426000   1474.8305      59804.743      5880.7351     -1899.8238      95.127768     -1804.6961     -1585.1848    
    427000   1394.5505      63072.13       5880.7351     -1894.4243      89.949637     -1804.4746     -1572.9705    
    428000   1413.4785      63390.745      5880.7351     -1895.4277      91.170512     -1804.2572     -1571.5836    
    429000   1441.0349      62952.026      5880.7351     -1896.9734      92.94792      -1804.0255     -1572.9622    
    430000   1421.4333      63926.325      5880.7351     -1895.4723      91.683604     -1803.7887     -1569.1493    
    431000   1407.9357      64417.242      5880.7351     -1894.3833      90.812996     -1803.5703     -1567.129     
    432000   1463.1752      61880.469      5880.7351     -1897.7154      94.375987     -1803.3394     -1576.2092    
    433000   1311.1576      69185.702      5880.7351     -1887.6805      84.570729     -1803.1098     -1549.166     
    434000   1400.2989      64421.732      5880.7351     -1893.1953      90.320414     -1802.8748     -1566.417     
    435000   1459.756       62321.029      5880.7351     -1896.8059      94.155447     -1802.6505     -1573.9032    
    436000   1393.3314      66047.594      5880.7351     -1892.2893      89.871009     -1802.4183     -1559.9928    
    437000   1434.1701      63608.816      5880.7351     -1894.6947      92.505135     -1802.1896     -1568.7155    
    438000   1437.0838      64060.323      5880.7351     -1894.6613      92.69307      -1801.9683     -1566.837     
    439000   1467.4014      63068.513      5880.7351     -1896.3786      94.64858      -1801.73       -1570.2392    
    440000   1457.4909      63286.528      5880.7351     -1895.5089      94.009346     -1801.4996     -1569.2085    
    441000   1418.1354      65501.98       5880.7351     -1892.7277      91.470884     -1801.2568     -1560.834     
    442000   1375.2386      67728.383      5880.7351     -1889.7444      88.70401      -1801.0404     -1552.4456    
    443000   1452.3846      64339.502      5880.7351     -1894.4892      93.679986     -1800.8093     -1564.6533    
    444000   1462.0162      65732.049      5880.7351     -1894.8831      94.301229     -1800.5818     -1559.3145    
    445000   1440.7282      65684.911      5880.7351     -1893.2809      92.928137     -1800.3528     -1559.2585    
    446000   1384.576       69019.64       5880.7351     -1889.4273      89.306277     -1800.121      -1546.7867    
    447000   1472.6556      64903.09       5880.7351     -1894.8888      94.987485     -1799.9013     -1561.6767    
    448000   1414.604       66535.929      5880.7351     -1890.9093      91.243106     -1799.6662     -1555.4483    
    449000   1495.273       65227.313      5880.7351     -1895.8785      96.446321     -1799.4322     -1560.0175    
    450000   1422.2864      67838.246      5880.7351     -1890.94        91.738627     -1799.2014     -1550.2034    
    451000   1517.6735      61981.558      5880.7351     -1896.8635      97.891175     -1798.9724     -1571.4711    
    452000   1390.3729      68363.931      5880.7351     -1888.4224      89.680184     -1798.7422     -1547.8147    
    453000   1483.4587      64203.488      5880.7351     -1894.1997      95.684289     -1798.5154     -1562.8586    
    454000   1516.6749      63743.476      5880.7351     -1896.1054      97.826765     -1798.2787     -1564.3104    
    455000   1440.6004      67066.814      5880.7351     -1890.9536      92.919896     -1798.0337     -1551.8672    
    456000   1469.0114      66242.417      5880.7351     -1892.5544      94.752431     -1797.802      -1554.6614    
    457000   1474.9583      66228.586      5880.7351     -1892.6919      95.13601      -1797.5559     -1554.4661    
    458000   1476.2107      66627.184      5880.7351     -1892.5328      95.21679      -1797.316      -1552.7632    
    459000   1448.1843      67770.483      5880.7351     -1890.4905      93.409063     -1797.0814     -1548.3321    
    460000   1514.2897      65354.026      5880.7351     -1894.5241      97.672914     -1796.8512     -1556.9715    
    461000   1458.3224      68366.17       5880.7351     -1890.682       94.06298      -1796.619      -1545.6832    
    462000   1530.8933      64926.802      5880.7351     -1895.1341      98.743864     -1796.3902     -1558.0786    
    463000   1508.3023      66929.406      5880.7351     -1893.4446      97.286727     -1796.1579     -1550.4958    
    464000   1444.3177      68192.847      5880.7351     -1889.0709      93.159662     -1795.9113     -1545.6117    
    465000   1498.7041      67479.397      5880.7351     -1892.3392      96.667629     -1795.6716     -1547.9907    
    466000   1527.6723      66221.58       5880.7351     -1893.9576      98.536102     -1795.4215     -1552.3574    
    467000   1501.3482      67287.133      5880.7351     -1892.0186      96.838181     -1795.1804     -1548.2052    
    468000   1385.7135      72974.493      5880.7351     -1884.3125      89.379646     -1794.9329     -1527.0824    
    469000   1478.5308      67641.784      5880.7351     -1890.0626      95.366435     -1794.6962     -1546.4193    
    470000   1442.8352      70985.991      5880.7351     -1887.5353      93.064043     -1794.4713     -1533.9196    
    471000   1490.9019      69166.002      5880.7351     -1890.3867      96.164386     -1794.2223     -1540.3508    
    472000   1537.5417      66526.994      5880.7351     -1893.1598      99.172691     -1793.9871     -1549.802     
    473000   1466.9765      70608.543      5880.7351     -1888.3624      94.621178     -1793.7412     -1534.5749    
    474000   1510.2139      67703.985      5880.7351     -1890.9128      97.410024     -1793.5028     -1544.9975    
    475000   1488.5716      70003.721      5880.7351     -1889.2622      96.014079     -1793.2481     -1536.3018    
    476000   1537.1817      68174.781      5880.7351     -1892.1523      99.149471     -1793.0028     -1542.7696    
    477000   1487.7035      70941.003      5880.7351     -1888.7175      95.958086     -1792.7595     -1532.3729    
    478000   1525.615       67994.664      5880.7351     -1890.9201      98.403409     -1792.5167     -1542.9446    
    479000   1500.6987      70439.365      5880.7351     -1889.0704      96.796287     -1792.2741     -1533.7288    
    480000   1542.5747      68870.247      5880.7351     -1891.5246      99.49732      -1792.0273     -1539.2413    
    481000   1493.352       70089.765      5880.7351     -1888.0901      96.322419     -1791.7677     -1534.5055    
    482000   1529.6232      68540.899      5880.7351     -1890.184       98.661937     -1791.5221     -1539.945     
    483000   1485.9887      71988.314      5880.7351     -1887.1324      95.847476     -1791.2849     -1527.0542    
    484000   1551.1957      68886.322      5880.7351     -1891.1057      100.05338     -1791.0523     -1538.2074    
    485000   1478.2204      72069.465      5880.7351     -1886.155       95.346416     -1790.8086     -1526.28      
    486000   1551.3978      69177.119      5880.7351     -1890.632       100.06642     -1790.5656     -1536.6533    
    487000   1429.1854      74835.659      5880.7351     -1882.5008      92.183619     -1790.3172     -1515.6354    
    488000   1507.9928      70919.592      5880.7351     -1887.339       97.266759     -1790.0723     -1529.7643    
    489000   1522.7116      70923.627      5880.7351     -1888.0383      98.216134     -1789.8222     -1529.4994    
    490000   1461.0131      73407.911      5880.7351     -1883.8098      94.236532     -1789.5732     -1520.132     
    491000   1580.0949      69759.72       5880.7351     -1891.2529      101.9174      -1789.3355     -1533.2848    
    492000   1563.2414      69645.298      5880.7351     -1889.9066      100.83034     -1789.0762     -1533.4455    
    493000   1555.9717      70191.482      5880.7351     -1889.1789      100.36144     -1788.8175     -1531.182     
    494000   1552.6581      71791.599      5880.7351     -1888.7229      100.14771     -1788.5752     -1525.0666    
    495000   1505.5733      73683.053      5880.7351     -1885.4339      97.110704     -1788.3232     -1517.872     
    496000   1535.45        70525.481      5880.7351     -1887.0958      99.037773     -1788.058      -1529.1966    
    497000   1543.7803      72164.363      5880.7351     -1887.3803      99.575081     -1787.8052     -1522.9284    
    498000   1548.6755      73003.826      5880.7351     -1887.4522      99.890826     -1787.5613     -1519.6032    
    499000   1563.4483      70973.528      5880.7351     -1888.1448      100.84368     -1787.3011     -1526.7952    
    500000   1545.217       74333.656      5880.7351     -1886.7138      99.667751     -1787.046      -1514.2068    
    501000   1485.9178      75343.065      5880.7351     -1882.6403      95.842908     -1786.7974     -1510.2532    
    502000   1586.1372      71835.617      5880.7351     -1888.8453      102.30714     -1786.5382     -1522.868     
    503000   1587.1019      71144.058      5880.7351     -1888.6458      102.36936     -1786.2764     -1525.1445    
    504000   1589.3898      72205.853      5880.7351     -1888.5416      102.51693     -1786.0247     -1520.9955    
    505000   1578.1441      71558.672      5880.7351     -1887.5525      101.79158     -1785.7609     -1523.1072    
    506000   1564.1329      73516.825      5880.7351     -1886.3905      100.88784     -1785.5026     -1515.6616    
    507000   1526.2445      75064.172      5880.7351     -1883.6853      98.444008     -1785.2413     -1509.7208    
    508000   1545.2634      74150.77       5880.7351     -1884.6555      99.670747     -1784.9847     -1512.8168    
    509000   1586.5085      72253.209      5880.7351     -1887.0597      102.33109     -1784.7286     -1519.5257    
    510000   1634.3053      69592.647      5880.7351     -1889.8781      105.41402     -1784.4641     -1529.0266    
    511000   1515.0801      75797.879      5880.7351     -1881.9225      97.723899     -1784.1986     -1505.985     
    512000   1591.5892      74352.454      5880.7351     -1886.6027      102.6588      -1783.944      -1511.0358    
    513000   1571.5714      74062.116      5880.7351     -1885.0429      101.36763     -1783.6753     -1511.8328    
    514000   1583.4011      74262.51       5880.7351     -1885.5445      102.13066     -1783.4139     -1510.8358    
    515000   1517.3273      77223.402      5880.7351     -1881.0383      97.868841     -1783.1694     -1499.7235    
    516000   1608.8118      73480.013      5880.7351     -1886.6859      103.76967     -1782.9163     -1513.2103    
    517000   1526.3173      76593.961      5880.7351     -1881.1102      98.448705     -1782.6615     -1501.526     
    518000   1600.1849      74273.406      5880.7351     -1885.6195      103.21322     -1782.4063     -1509.7882    
    519000   1528.2075      77581.364      5880.7351     -1880.7211      98.570628     -1782.1505     -1497.3907    
    520000   1587.9114      74675.003      5880.7351     -1884.308       102.42158     -1781.8864     -1507.7943    
    521000   1571.5469      75772.071      5880.7351     -1882.9847      101.36605     -1781.6186     -1503.4998    
    522000   1595.0437      75828.934      5880.7351     -1884.2382      102.88161     -1781.3566     -1503.029     
    523000   1620.0407      74833.738      5880.7351     -1885.5835      104.49394     -1781.0896     -1506.4148    
    524000   1531.5916      78159.197      5880.7351     -1879.6119      98.788901     -1780.823      -1493.9423    
    525000   1526.2627      78962.65       5880.7351     -1879.0142      98.445187     -1780.5691     -1490.7393    
    526000   1556.127       78132.757      5880.7351     -1880.6851      100.37145     -1780.3137     -1493.53      
    527000   1564.3758      77289.628      5880.7351     -1880.9382      100.90351     -1780.0347     -1496.3457    
    528000   1552.2535      78323.403      5880.7351     -1879.9         100.12161     -1779.7784     -1492.2949    
    529000   1684.0417      73100.047      5880.7351     -1888.1386      108.62206     -1779.5166     -1511.2053    
    530000   1587.3056      77083.712      5880.7351     -1881.6238      102.3825      -1779.2413     -1496.3081    
    531000   1661.7811      74284.699      5880.7351     -1886.1742      107.18623     -1778.988      -1506.3285    
    532000   1605.0174      76567.61       5880.7351     -1882.2519      103.52493     -1778.727      -1497.6881    
    533000   1616.1782      76188.666      5880.7351     -1882.7004      104.24481     -1778.4556     -1498.8076    
    534000   1587.4591      79038.192      5880.7351     -1880.5794      102.3924      -1778.187      -1488.0799    
    535000   1616.2378      76426.199      5880.7351     -1882.1853      104.24865     -1777.9367     -1497.4169    
    536000   1546.6423      80122.333      5880.7351     -1877.4284      99.759688     -1777.6687     -1483.5824    
    537000   1575.3197      79377.203      5880.7351     -1879.0191      101.6094      -1777.4097     -1486.0583    
    538000   1623.6615      77000.877      5880.7351     -1881.8696      104.72749     -1777.1421     -1494.5129    
    539000   1618.6351      78073.36       5880.7351     -1881.2792      104.40328     -1776.8759     -1490.3103    
    540000   1588.4892      80694.484      5880.7351     -1879.0617      102.45884     -1776.6029     -1480.4165    
    541000   1652.6908      76380.156      5880.7351     -1882.946       106.5999      -1776.3461     -1495.9953    
    542000   1616.1634      79910.132      5880.7351     -1880.3248      104.24385     -1776.081      -1482.7735    
    543000   1602.9642      79055.205      5880.7351     -1879.2019      103.39249     -1775.8094     -1485.6399    
    544000   1529.2352      83854.679      5880.7351     -1874.1746      98.63691      -1775.5377     -1467.7519    
    545000   1661.7042      78381.416      5880.7351     -1882.435       107.18127     -1775.2537     -1487.5573    
    546000   1616.7428      78596.087      5880.7351     -1879.2623      104.28122     -1774.9811     -1486.4968    
    547000   1646.9862      77050.389      5880.7351     -1880.9347      106.23195     -1774.7028     -1491.8919    
    548000   1602.4209      80659.257      5880.7351     -1877.7998      103.35745     -1774.4423     -1478.3852    
    549000   1613.4257      80308.004      5880.7351     -1878.2507      104.06727     -1774.1835     -1479.4156    
    550000   1700.9901      77870.176      5880.7351     -1883.6336      109.71524     -1773.9183     -1488.0985    
    551000   1514.6948      86079.028      5880.7351     -1871.3314      97.699045     -1773.6324     -1457.6822    
    552000   1606.1384      81418.415      5880.7351     -1876.9534      103.59723     -1773.3562     -1474.5126    
    553000   1604.734       82443.759      5880.7351     -1876.5848      103.50665     -1773.0782     -1470.4711    
    554000   1724.2375      76239.01       5880.7351     -1884.016       111.21472     -1772.8012     -1492.9685    
    555000   1680.316       79253.136      5880.7351     -1880.899       108.38174     -1772.5173     -1481.6213    
    556000   1644.9048      80729.107      5880.7351     -1878.3398      106.0977      -1772.2421     -1475.9287    
    557000   1705.4702      78683.608      5880.7351     -1881.9832      110.00421     -1771.9789     -1483.1734    
    558000   1662.2801      80818.454      5880.7351     -1878.9172      107.21841     -1771.6988     -1475.0574    
    559000   1636.3814      82365.7        5880.7351     -1876.9615      105.54793     -1771.4136     -1469.093     
    560000   1607.3211      84147.646      5880.7351     -1874.8123      103.67352     -1771.1388     -1462.2777    
    561000   1642.0811      82507.824      5880.7351     -1876.7742      105.91556     -1770.8586     -1468.0164    
    562000   1661.8177      81023.657      5880.7351     -1877.7602      107.18859     -1770.5716     -1473.177     
    563000   1738.8846      78611.441      5880.7351     -1882.4675      112.15947     -1770.308      -1481.7674    
    564000   1699.9451      79579.277      5880.7351     -1879.6726      109.64784     -1770.0247     -1477.9316    
    565000   1673.9629      80977.282      5880.7351     -1877.7277      107.97197     -1769.7558     -1472.5314    
    566000   1664.31        81794.699      5880.7351     -1876.8297      107.34935     -1769.4804     -1469.2557    
    567000   1762.0382      78059.442      5880.7351     -1882.8604      113.65289     -1769.2075     -1482.6929    
    568000   1630.5625      86061.95       5880.7351     -1874.0932      105.1726      -1768.9206     -1453.0331    
    569000   1698.7425      81573.779      5880.7351     -1878.2145      109.57027     -1768.6442     -1469.2304    
    570000   1740.9647      80045.069      5880.7351     -1880.6721      112.29363     -1768.3785     -1474.5757    
    571000   1655.3244      83279.511      5880.7351     -1874.8651      106.76977     -1768.0953     -1462.4206    
    572000   1640.2931      84051.669      5880.7351     -1873.6228      105.80024     -1767.8226     -1459.3138    
    573000   1668.7348      83936.556      5880.7351     -1875.1738      107.63475     -1767.539      -1459.4527    
    574000   1609.4051      85160.884      5880.7351     -1871.0592      103.80794     -1767.2512     -1454.6711    
    575000   1604.8203      87052.567      5880.7351     -1870.483       103.51221     -1766.9708     -1447.4472    
    576000   1752.9919      81555.53       5880.7351     -1879.7766      113.0694      -1766.7072     -1467.3603    
    577000   1669.4869      85296.007      5880.7351     -1874.1025      107.68326     -1766.4192     -1453.3431    
    578000   1693.7462      83829.093      5880.7351     -1875.3892      109.24801     -1766.1412     -1458.4493    
    579000   1722.1839      83708.96       5880.7351     -1876.9425      111.08226     -1765.8602     -1458.6093    
    580000   1661.4738      85550.604      5880.7351     -1872.7348      107.16641     -1765.5684     -1451.5578    
    581000   1682.1986      84817.008      5880.7351     -1873.7781      108.50317     -1765.2749     -1453.9569    
    582000   1682.4902      85670.134      5880.7351     -1873.5145      108.52199     -1764.9925     -1450.5432    
    583000   1664.1589      86584.301      5880.7351     -1872.0479      107.3396      -1764.7083     -1446.9035    
    584000   1746.1314      83817.887      5880.7351     -1877.0512      112.62689     -1764.4243     -1456.7736    
    585000   1690.0676      85646.539      5880.7351     -1873.1401      109.01073     -1764.1294     -1449.7666    
    586000   1686.8196      85789.867      5880.7351     -1872.6352      108.80124     -1763.8339     -1448.9451    
    587000   1766.4111      82574.74       5880.7351     -1877.4931      113.93495     -1763.5581     -1460.4703    
    588000   1738.94        84076.828      5880.7351     -1875.4432      112.16304     -1763.2801     -1454.679     
    589000   1709.8696      85755.845      5880.7351     -1873.2763      110.28798     -1762.9884     -1448.2244    
    590000   1733.7789      84537.102      5880.7351     -1874.5329      111.83014     -1762.7027     -1452.4121    
    591000   1807.2857      83132.791      5880.7351     -1878.9962      116.5714      -1762.4248     -1457.2887    
    592000   1716.9962      86004.946      5880.7351     -1872.8833      110.74765     -1762.1356     -1446.4574    
    593000   1673.4445      87805.839      5880.7351     -1869.787       107.93853     -1761.8485     -1439.5601    
    594000   1801.5009      83555.495      5880.7351     -1877.7513      116.19827     -1761.553      -1454.8654    
    595000   1697.8296      89005.547      5880.7351     -1870.7742      109.51139     -1761.2628     -1434.571     
    596000   1711.7447      87637.604      5880.7351     -1871.3745      110.40893     -1760.9656     -1439.2947    
    597000   1793.9952      84171.52       5880.7351     -1876.4025      115.71415     -1760.6884     -1451.7396    
    598000   1641.4744      91444.992      5880.7351     -1866.2867      105.87643     -1760.4103     -1424.7645    
    599000   1686.7691      90822.29       5880.7351     -1868.9274      108.79797     -1760.1294     -1426.7693    
    600000   1793.4428      84305.61       5880.7351     -1875.5245      115.67852     -1759.846      -1450.4051    
    601000   1704.8197      89580.741      5880.7351     -1869.5233      109.96226     -1759.5611     -1430.758     
    602000   1652.8264      91817.216      5880.7351     -1865.8827      106.60865     -1759.2741     -1422.2621    
    603000   1746.0405      88125.445      5880.7351     -1871.6067      112.62103     -1758.9857     -1435.5242    
    604000   1731.707       88639.826      5880.7351     -1870.3932      111.69651     -1758.6967     -1433.3472    
    605000   1722.6904      89022.043      5880.7351     -1869.5295      111.11493     -1758.4146     -1431.6622    
    606000   1780.1629      86719.373      5880.7351     -1872.9404      114.82195     -1758.1184     -1439.8179    
    607000   1735.0554      89216.092      5880.7351     -1869.7491      111.91248     -1757.8366     -1430.3719    
    608000   1697.4709      91916.929      5880.7351     -1867.0219      109.48825     -1757.5337     -1420.1557    
    609000   1792.2309      87275.749      5880.7351     -1872.8347      115.60035     -1757.2343     -1436.8916    
    610000   1765.7878      88949.606      5880.7351     -1870.8317      113.89475     -1756.9369     -1430.4504    
    611000   1769.3523      88843.943      5880.7351     -1870.7504      114.12466     -1756.6257     -1430.527     
    612000   1779.2605      88517.894      5880.7351     -1871.0884      114.76375     -1756.3247     -1431.4227    
    613000   1785.9034      87928.393      5880.7351     -1871.2243      115.19222     -1756.0321     -1433.2939    
    614000   1738.0305      90933.749      5880.7351     -1867.8349      112.10438     -1755.7305     -1421.9612    
    615000   1760.2707      89377.277      5880.7351     -1868.9807      113.53889     -1755.4418     -1427.3855    
    616000   1762.3273      89942.381      5880.7351     -1868.8142      113.67154     -1755.1427     -1425.0122    
    617000   1813.2869      87758.544      5880.7351     -1871.8066      116.95848     -1754.8481     -1432.7333    
    618000   1704.6806      92277.297      5880.7351     -1864.495       109.95329     -1754.5417     -1415.841     
    619000   1812.0883      88689.327      5880.7351     -1871.1384      116.88117     -1754.2572     -1428.726     
    620000   1798.6374      88493.262      5880.7351     -1869.9838      116.01357     -1753.9702     -1429.1587    
    621000   1741.7855      92359.219      5880.7351     -1865.9903      112.34658     -1753.6437     -1414.6423    
    622000   1825.4942      89413.168      5880.7351     -1871.1033      117.74586     -1753.3574     -1425.1694    
    623000   1862.882       87710.828      5880.7351     -1873.2226      120.1574      -1753.0652     -1431.1256    
    624000   1836.4436      89767.223      5880.7351     -1871.2012      118.45211     -1752.7491     -1423.2616    
    625000   1915.1569      86698.328      5880.7351     -1875.9884      123.52918     -1752.4592     -1434.2359    
    626000   1796.7091      91551.759      5880.7351     -1868.0426      115.8892      -1752.1534     -1416.1157    
    627000   1862.8039      87998.709      5880.7351     -1872.0052      120.15236     -1751.8528     -1428.8565    
    628000   1794.1274      91424.81       5880.7351     -1867.2722      115.72268     -1751.5495     -1415.9778    
    629000   1836.6002      90181.691      5880.7351     -1869.7205      118.4622      -1751.2583     -1420.2494    
    630000   1812.5671      92562.848      5880.7351     -1867.8718      116.91205     -1750.9597     -1411.2109    
    631000   1919.9428      87793.654      5880.7351     -1874.5         123.83787     -1750.6621     -1428.4185    
    632000   1893.5267      89272.751      5880.7351     -1872.4952      122.13401     -1750.3612     -1422.6885    
    633000   1950.0953      87447.672      5880.7351     -1875.8245      125.78273     -1750.0418     -1429.068     
    634000   1691.3647      97764.897      5880.7351     -1858.8205      109.0944      -1749.7261     -1390.8833    
    635000   1779.4934      94942.253      5880.7351     -1864.1863      114.77877     -1749.4076     -1400.9252    
    636000   1795.8636      92532.1        5880.7351     -1864.951       115.83466     -1749.1163     -1409.4803    
    637000   1868.3111      91121.482      5880.7351     -1869.3289      120.50758     -1748.8213     -1414.363     
    638000   1884.7457      91021.425      5880.7351     -1870.0756      121.56763     -1748.508      -1414.4169    
    639000   1871.882       90503.507      5880.7351     -1868.9393      120.73791     -1748.2014     -1416.0113    
    640000   1911.5574      89562.825      5880.7351     -1871.2001      123.297       -1747.903      -1419.1657    
    641000   1922.2337      89020.064      5880.7351     -1871.5893      123.98563     -1747.6037     -1420.8585    
    642000   1888.6997      90437.709      5880.7351     -1869.1239      121.82266     -1747.3013     -1415.3527    
    643000   1802.1305      95515.656      5880.7351     -1863.239       116.23888     -1747.0001     -1396.4131    
    644000   1849.6507      93376.712      5880.7351     -1865.9927      119.30397     -1746.6887     -1403.9526    
    645000   1770.173       98145.236      5880.7351     -1860.5548      114.1776      -1746.3772     -1386.1384    
    646000   1819.1453      96235.195      5880.7351     -1863.4033      117.33635     -1746.0669     -1392.8389    
    647000   1832.7908      94637.281      5880.7351     -1863.976       118.2165      -1745.7595     -1398.3965    
    648000   1878.1801      93584.249      5880.7351     -1866.5895      121.14414     -1745.4454     -1401.9476    
    649000   1869.2535      93244.566      5880.7351     -1865.726       120.56837     -1745.1576     -1402.9066    
    650000   1945.2809      89979.625      5880.7351     -1870.3188      125.4722      -1744.8466     -1414.5794    
    651000   1794.4442      98761.43       5880.7351     -1860.2783      115.74311     -1744.5352     -1382.0347    
    652000   1829.0666      97426.866      5880.7351     -1862.2004      117.97628     -1744.2241     -1386.622     
    653000   1744.6418      100904.98      5880.7351     -1856.4359      112.53081     -1743.905      -1373.5367    
    654000   1961.4349      92382.719      5880.7351     -1870.118       126.51414     -1743.6039     -1404.5162    
    655000   1919.0413      94170.262      5880.7351     -1867.0682      123.77972     -1743.2885     -1397.6397    
    656000   1855.5174      96281.365      5880.7351     -1862.6497      119.68238     -1742.9673     -1389.5698    
    657000   1895.8389      94981.464      5880.7351     -1864.924       122.28315     -1742.6408     -1394.0145    
    658000   1861.0877      97551          5880.7351     -1862.3585      120.04167     -1742.3168     -1384.2591    
    659000   1903.7416      95732.306      5880.7351     -1864.8001      122.79288     -1742.0073     -1390.625     
    660000   1901.4588      96126.088      5880.7351     -1864.3392      122.64564     -1741.6935     -1388.866     
    661000   1785.4949      101017.3       5880.7351     -1856.5318      115.16587     -1741.3659     -1370.5853    
    662000   1871.7487      97032.004      5880.7351     -1861.7935      120.72931     -1741.0642     -1384.9115    
    663000   1877.9044      97623.886      5880.7351     -1861.8706      121.12636     -1740.7442     -1382.419     
    664000   1867.596       97915.254      5880.7351     -1860.8939      120.46146     -1740.4324     -1381.0378    
    665000   1833.8206      99239.219      5880.7351     -1858.4251      118.28292     -1740.1422     -1375.8879    
    666000   1920.954       94689.861      5880.7351     -1863.7317      123.9031      -1739.8286     -1392.2727    
    667000   1876.6722      98462.633      5880.7351     -1860.5569      121.04688     -1739.5101     -1378.1063    
[...]
    840000   2266.0447      130614.18      5880.7351     -1826.9894      146.16172     -1680.8277     -1201.4127    
    841000   2158.4246      135779.61      5880.7351     -1819.6968      139.22014     -1680.4767     -1182.1021    
    842000   2367.566       127504.33      5880.7351     -1832.8219      152.70993     -1680.112      -1212.1116    
    843000   2302.8619      130909.27      5880.7351     -1828.2794      148.53647     -1679.7429     -1199.2448    
    844000   2202.4022      134339.35      5880.7351     -1821.4308      142.05673     -1679.374      -1186.286     
    845000   2421.6153      125733.63      5880.7351     -1835.2216      156.19615     -1679.0255     -1217.5244    
    846000   2336.9925      130545.65      5880.7351     -1829.3975      150.73792     -1678.6596     -1199.4961    
    847000   2384.6941      128604.15      5880.7351     -1832.1204      153.81471     -1678.3057     -1206.2685    
    848000   2337.4856      128492.52      5880.7351     -1828.7261      150.76972     -1677.9563     -1206.3289    
    849000   2236.4783      136047.96      5880.7351     -1821.8486      144.25467     -1677.5939     -1178.2344    
    850000   2237.5722      135982.97      5880.7351     -1821.529       144.32522     -1677.2038     -1178.0829    
    851000   2302.1915      133084.01      5880.7351     -1825.3231      148.49322     -1676.8298     -1188.3494    
    852000   2371.7898      129637.92      5880.7351     -1829.4548      152.98237     -1676.4724     -1200.6408    
    853000   2299.3945      134130.03      5880.7351     -1824.4084      148.31282     -1676.0956     -1183.7758    
    854000   2324.409       133081.54      5880.7351     -1825.6501      149.92627     -1675.7238     -1187.2525    
    855000   2337.834       131912.73      5880.7351     -1826.1469      150.79219     -1675.3547     -1191.1734    
    856000   2354.6914      133694.62      5880.7351     -1826.8627      151.87951     -1674.9832     -1184.2616    
    857000   2393.0238      131907.1       5880.7351     -1828.9655      154.35198     -1674.6135     -1190.4529    
    858000   2442.2789      129106.78      5880.7351     -1831.7843      157.52897     -1674.2553     -1200.3732    
    859000   2355.2643      134227.19      5880.7351     -1825.8152      151.91646     -1673.8987     -1181.2223    
    860000   2291.6919      135752.72      5880.7351     -1821.3362      147.81599     -1673.5202     -1175.2444    
    861000   2309.1245      135395.79      5880.7351     -1822.0791      148.9404      -1673.1387     -1176.173     
    862000   2451.8702      131322.85      5880.7351     -1830.9325      158.14762     -1672.7849     -1190.7687    
    863000   2452.7991      131717.86      5880.7351     -1830.6287      158.20754     -1672.4211     -1188.9551    
    864000   2366.6001      133096.57      5880.7351     -1824.7143      152.64763     -1672.0667     -1183.5402    
    865000   2392.1877      133389.49      5880.7351     -1825.9748      154.29805     -1671.6767     -1182.0751    
    866000   2421.9262      132161.51      5880.7351     -1827.5292      156.2162      -1671.313      -1186.2186    
    867000   2304.6399      139574.1       5880.7351     -1819.5911      148.65114     -1670.94       -1158.6379    
    868000   2363.048       135075.18      5880.7351     -1822.9881      152.41852     -1670.5696     -1174.7807    
    869000   2340.9077      137569.52      5880.7351     -1821.1857      150.99045     -1670.1953     -1165.2509    
    870000   2390.1041      135728.81      5880.7351     -1823.993       154.16365     -1669.8294     -1171.6413    
    871000   2369.2512      137736.44      5880.7351     -1822.3139      152.81863     -1669.4953     -1163.9383    
    872000   2422.8131      134475.62      5880.7351     -1825.4056      156.27341     -1669.1322     -1175.544     
    873000   2483.2236      131628.27      5880.7351     -1828.926       160.16994     -1668.7561     -1185.6189    
    874000   2394.7006      136467.54      5880.7351     -1822.8572      154.46013     -1668.397      -1167.4975    
    875000   2317.9059      139348.92      5880.7351     -1817.5384      149.50681     -1668.0316     -1156.556     
    876000   2427.2997      135336.45      5880.7351     -1824.2287      156.5628      -1667.6659     -1170.918     
    877000   2489.0772      133166.34      5880.7351     -1827.8463      160.5475      -1667.2988     -1178.5163    
    878000   2312.638       139687.78      5880.7351     -1816.1029      149.16703     -1666.9359     -1154.2166    
    879000   2328.98        140184.52      5880.7351     -1816.7747      150.2211      -1666.5536     -1152.011     
    880000   2355.6752      138067.32      5880.7351     -1818.1506      151.94296     -1666.2077     -1159.4362    
    881000   2385.883       137622.57      5880.7351     -1819.746       153.89139     -1665.8546     -1160.7156    
    882000   2363.0954      141514.29      5880.7351     -1817.9029      152.42157     -1665.4813     -1146.0578    
    883000   2333.8574      142332.76      5880.7351     -1815.6552      150.5357      -1665.1195     -1142.6919    
    884000   2367.8825      140326.91      5880.7351     -1817.4798      152.73035     -1664.7495     -1149.6843    
    885000   2428.1287      137090.77      5880.7351     -1821.016       156.61627     -1664.3998     -1161.2127    
    886000   2465.0199      137380.33      5880.7351     -1823.0274      158.99579     -1664.0316     -1159.7817    
    887000   2401.0388      141237.58      5880.7351     -1818.5608      154.86895     -1663.6918     -1145.284     
    888000   2418.2839      141367.6       5880.7351     -1819.3127      155.98128     -1663.3314     -1144.4464    
    889000   2384.9233      140748.62      5880.7351     -1816.8078      153.82949     -1662.9783     -1146.3652    
    890000   2373.8872      142018.43      5880.7351     -1815.7154      153.11765     -1662.5977     -1141.3238    
    891000   2319.9854      145242.79      5880.7351     -1811.8493      149.64094     -1662.2084     -1129.0996    
    892000   2435.943       141360.26      5880.7351     -1818.9517      157.1203      -1661.8314     -1142.9733    
    893000   2471.8565      140856.04      5880.7351     -1820.8638      159.43675     -1661.4271     -1144.4197    
    894000   2615.9638      133423.78      5880.7351     -1829.7901      168.73179     -1661.0583     -1171.3308    
    895000   2567.7609      135457.84      5880.7351     -1826.3015      165.62266     -1660.6788     -1163.4853    
    896000   2429.2751      139186.95      5880.7351     -1817.008       156.69021     -1660.3178     -1149.4367    
    897000   2483.678       139397.25      5880.7351     -1820.1492      160.19925     -1659.9499     -1148.297     
    898000   2433.8116      142412.44      5880.7351     -1816.5628      156.98282     -1659.58       -1136.8599    
    899000   2439.2656      142026.6       5880.7351     -1816.5397      157.33461     -1659.2051     -1137.9012    
    900000   2433.5176      141646.53      5880.7351     -1815.7664      156.96386     -1658.8026     -1138.8937    
    901000   2508.3251      139237.44      5880.7351     -1820.238       161.789       -1658.449      -1147.3826    
    902000   2310.2367      148176.92      5880.7351     -1807.0691      149.01215     -1658.057      -1114.1786    
    903000   2433.506       143952.09      5880.7351     -1814.6583      156.96312     -1657.6951     -1129.3238    
    904000   2535.4746      139690.32      5880.7351     -1820.8758      163.54017     -1657.3356     -1144.6069    
    905000   2293.637       149589.39      5880.7351     -1804.9168      147.94145     -1656.9754     -1107.9126    
    906000   2265.1855      152129.38      5880.7351     -1802.6969      146.1063      -1656.5906     -1098.2048    
    907000   2493.8014      141269.73      5880.7351     -1817.0684      160.85221     -1656.2162     -1137.6904    
    908000   2453.7328      147010.38      5880.7351     -1814.117       158.26776     -1655.8492     -1116.2526    
    909000   2365.5132      148969.06      5880.7351     -1808.0643      152.57752     -1655.4868     -1108.7008    
    910000   2264.0385      152704.45      5880.7351     -1801.143       146.03232     -1655.1107     -1094.6141    
    911000   2342.9652      149430.92      5880.7351     -1805.8537      151.12316     -1654.7305     -1106.2493    
    912000   2374.5961      148912.19      5880.7351     -1807.5353      153.16337     -1654.3719     -1107.7947    
    913000   2514.8216      143805.06      5880.7351     -1816.1966      162.20803     -1653.9886     -1126.157     
    914000   2412.0523      148488.59      5880.7351     -1809.2132      155.57934     -1653.6339     -1108.6115    
    915000   2409.4743      146667.61      5880.7351     -1808.665       155.41305     -1653.2519     -1114.9134    
    916000   2433.4311      147550.37      5880.7351     -1809.8368      156.95828     -1652.8785     -1111.2998    
    917000   2382.8303      151764.04      5880.7351     -1806.193       153.69449     -1652.4986     -1095.4537    
    918000   2379.6788      151249.54      5880.7351     -1805.613       153.49122     -1652.1218     -1096.9654    
    919000   2534.1404      144438.81      5880.7351     -1815.1951      163.45411     -1651.741      -1121.5832    
    920000   2407.6061      150354.93      5880.7351     -1806.6398      155.29255     -1651.3473     -1099.4746    
    921000   2423.0587      149824.35      5880.7351     -1807.2793      156.28926     -1650.9901     -1101.0648    
    922000   2563.9585      144813.68      5880.7351     -1816.0042      165.37741     -1650.6268     -1119.0931    
    923000   2511.4182      147423.26      5880.7351     -1812.2319      161.98852     -1650.2434     -1109.1312    
    924000   2516.0647      147271.71      5880.7351     -1812.1359      162.28821     -1649.8476     -1109.2918    
    925000   2559.4495      144889.45      5880.7351     -1814.5578      165.08657     -1649.4712     -1117.6594    
    926000   2394.553       153524.03      5880.7351     -1803.5433      154.45062     -1649.0927     -1085.5879    
    927000   2515.7787      147219.41      5880.7351     -1810.9965      162.26977     -1648.7267     -1108.3628    
    928000   2557.0713      148089.53      5880.7351     -1813.2784      164.93318     -1648.3452     -1104.7876    
    929000   2497.9902      148874.46      5880.7351     -1809.1001      161.1224      -1647.9777     -1101.539     
    930000   2508.6427      149886.7       5880.7351     -1809.4352      161.80949     -1647.6257     -1097.4716    
    931000   2597.6441      146363.6       5880.7351     -1814.7956      167.55016     -1647.2455     -1110.0228    
    932000   2536.1574      148419.63      5880.7351     -1810.4452      163.58421     -1646.861      -1102.0918    
    933000   2517.416       149694.14      5880.7351     -1808.8828      162.37538     -1646.5074     -1097.0601    
    934000   2582.3519      147983.32      5880.7351     -1812.703       166.5638      -1646.1392     -1102.9714    
    935000   2451.6429      152506.5       5880.7351     -1803.8923      158.13296     -1645.7594     -1085.9894    
    936000   2345.3292      158901.5       5880.7351     -1796.6673      151.27564     -1645.3917     -1062.1491    
    937000   2497.269       150672.38      5880.7351     -1806.0923      161.07588     -1645.0165     -1091.9785    
    938000   2503.5762      152379.13      5880.7351     -1806.1062      161.4827      -1644.6235     -1085.321     
    939000   2555.6953      149533.24      5880.7351     -1809.0791      164.84442     -1644.2347     -1095.3779    
    940000   2572.6254      149796.02      5880.7351     -1809.7795      165.93643     -1643.8431     -1094.0218    
    941000   2382.1896      157460.74      5880.7351     -1797.1236      153.65316     -1643.4705     -1065.5161    
    942000   2541.6088      151133.54      5880.7351     -1807.04        163.93583     -1643.1042     -1088.3736    
    943000   2579.7616      149486.05      5880.7351     -1809.1176      166.39672     -1642.7209     -1094.0373    
    944000   2383.4081      158494.91      5880.7351     -1796.0594      153.73176     -1642.3276     -1060.5773    
    945000   2444.2078      156391.86      5880.7351     -1799.6187      157.65339     -1641.9653     -1067.9343    
    946000   2084.9721      172467.12      5880.7351     -1776.0978      134.48239     -1641.6154     -1008.5806    
    947000   2130.9694      172133.71      5880.7351     -1778.7206      137.44926     -1641.2714     -1009.4604    
    948000   2122.7125      172037.53      5880.7351     -1777.8575      136.91668     -1640.9408     -1009.4828    
    949000   2208.7389      169414.43      5880.7351     -1783.0611      142.46545     -1640.5956     -1018.7657    
    950000   2066.3937      172950.33      5880.7351     -1773.5292      133.28407     -1640.2452     -1005.4368    
    951000   2239.7194      166328.39      5880.7351     -1784.3751      144.46372     -1639.9114     -1029.4086    
    952000   2167.8449      168959.25      5880.7351     -1779.3869      139.82776     -1639.5592     -1019.3999    
    953000   2145.1501      170279.19      5880.7351     -1777.5761      138.36392     -1639.2122     -1014.2082    
    954000   2187.6779      170777.15      5880.7351     -1779.9656      141.107       -1638.8586     -1012.0268    
    955000   2208.1952      168939.68      5880.7351     -1780.9528      142.43038     -1638.5224     -1018.435     
    956000   2189.2506      171789.73      5880.7351     -1779.3813      141.20844     -1638.1728     -1007.6244    
    957000   2175.2151      173177.52      5880.7351     -1778.1211      140.30314     -1637.818      -1002.1757    
    958000   2180.9212      171357.31      5880.7351     -1778.1213      140.67119     -1637.4501     -1008.4888    
    959000   2264.9436      168417.29      5880.7351     -1783.1867      146.0907      -1637.096      -1018.926     
    960000   2111.5591      174574.45      5880.7351     -1772.9141      136.19728     -1636.7168     -995.94713    
    961000   2156.9993      170860.62      5880.7351     -1775.4786      139.1282      -1636.3504     -1009.2123    
    962000   2267.5341      168476.91      5880.7351     -1782.2284      146.25779     -1635.9706     -1017.5818    
    963000   2092.6251      175089.6       5880.7351     -1770.5594      134.97602     -1635.5833     -992.92284    
    964000   2221.827       170810.32      5880.7351     -1778.5171      143.30965     -1635.2074     -1008.2539    
    965000   2225.6451      170868.26      5880.7351     -1778.368       143.55592     -1634.8121     -1007.6458    
    966000   2181.8174      173142.36      5880.7351     -1775.1636      140.729       -1634.4346     -998.92134    
    967000   2204.8825      176413         5880.7351     -1776.2348      142.21671     -1634.0181     -986.50011    
    968000   2171.8647      175961.78      5880.7351     -1773.7204      140.08704     -1633.6334     -987.77159    
    969000   2199.6543      171338.46      5880.7351     -1775.105       141.87949     -1633.2255     -1004.3335    
    970000   2107.1529      180608.29      5880.7351     -1768.7604      135.91308     -1632.8474     -969.93067    
    971000   2234.5282      173694         5880.7351     -1776.5901      144.12888     -1632.4612     -994.92325    
    972000   2215.8015      172402.1       5880.7351     -1774.9913      142.92099     -1632.0703     -999.2742     
    973000   2347.9844      171439.23      5880.7351     -1783.0957      151.4469      -1631.6488     -1002.3868    
    974000   2188.2572      176694.83      5880.7351     -1772.3765      141.14437     -1631.2321     -982.67964    
    975000   2233.3163      173773.82      5880.7351     -1774.8764      144.05071     -1630.8257     -992.99473    
    976000   2196.2954      175568.59      5880.7351     -1772.0942      141.66284     -1630.4313     -986.01271    
    977000   2281.7804      175130.93      5880.7351     -1777.2055      147.17669     -1630.0288     -987.21658    
    978000   2257.4527      175640.31      5880.7351     -1775.2225      145.60754     -1629.615      -984.9331     
    979000   2186.8775      179819.76      5880.7351     -1770.2612      141.05537     -1629.2059     -969.18348    
    980000   2266.5248      172964.54      5880.7351     -1774.9954      146.19269     -1628.8027     -993.9422     
    981000   2336.3388      173599.52      5880.7351     -1779.0672      150.69575     -1628.3714     -991.18021    
    982000   2107.6369      181338.77      5880.7351     -1763.8942      135.94429     -1627.9499     -962.35204    
    983000   2230.9555      176601.53      5880.7351     -1771.4494      143.89844     -1627.551      -979.341      
    984000   2311.7157      174678.99      5880.7351     -1776.2281      149.10754     -1627.1206     -985.96721    
    985000   2194.4595      178275.63      5880.7351     -1768.2444      141.54442     -1626.7        -972.34528    
    986000   2228.4795      178275.72      5880.7351     -1770.0232      143.73873     -1626.2845     -971.92939    
    987000   2203.2001      179137.42      5880.7351     -1767.9647      142.1082      -1625.8565     -968.33858    
    988000   2230.9576      179864.99      5880.7351     -1769.3288      143.89858     -1625.4302     -965.24179    
    989000   2282.235       177973.38      5880.7351     -1772.2133      147.20601     -1625.0073     -971.76197    
    990000   2227.1597      180521.49      5880.7351     -1768.2342      143.65361     -1624.5806     -961.98253    
    991000   2216.5496      177941.77      5880.7351     -1767.1226      142.96925     -1624.1534     -971.02408    
    992000   2255.6403      180454.68      5880.7351     -1769.2272      145.49063     -1623.7366     -961.38374    
    993000   2352.2136      177981.94      5880.7351     -1775.0301      151.71969     -1623.3104     -970.03362    
    994000   2198.6524      182435.35      5880.7351     -1764.7235      141.81487     -1622.9086     -953.28577    
    995000   2217.5209      183182.54      5880.7351     -1765.5145      143.0319      -1622.4827     -950.11727    
    996000   2311.0581      179250.81      5880.7351     -1771.126       149.06513     -1622.0609     -964.12681    
    997000   2382.8082      177518.49      5880.7351     -1775.3326      153.69307     -1621.6395     -970.06383    
    998000   2296.1756      179059.28      5880.7351     -1769.316       148.10519     -1621.2108     -963.97968    
    999000   2360.4702      179308.15      5880.7351     -1773.0241      152.25225     -1620.7719     -962.62733    
   1000000   2270.0334      184924.21      5880.7351     -1766.7295      146.419       -1620.3105     -941.55239    
Loop time of 2351.17 on 8 procs for 1000000 steps with 500 atoms

Performance: 36.748 ns/day, 0.653 hours/ns, 425.321 timesteps/s
22.1% CPU use with 8 MPI tasks x 1 OpenMP threads

MPI task timing breakdown:
Section |  min time  |  avg time  |  max time  |%varavg| %total
---------------------------------------------------------------
Pair    | 912.61     | 930.87     | 949.65     |  36.1 | 39.59
Neigh   | 8.012      | 8.0637     | 8.1067     |   1.2 |  0.34
Comm    | 786.84     | 819.65     | 845.59     |  63.2 | 34.86
Output  | 3.0598     | 3.0726     | 3.0815     |   0.4 |  0.13
Modify  | 514.84     | 559.46     | 610.36     | 119.9 | 23.80
Other   |            | 30.04      |            |       |  1.28

Nlocal:           62.5 ave          65 max          58 min
Histogram: 1 0 0 0 1 2 0 1 1 2
Nghost:        1394.25 ave        1405 max        1377 min
Histogram: 1 1 0 0 0 0 1 3 1 1
Neighs:        6527.12 ave        6846 max        5959 min
Histogram: 1 0 0 0 0 3 0 0 3 1

Total # of neighbors = 52217
Ave neighs/atom = 104.434
Neighbor list builds = 50000
Dangerous builds not checked
Total wall time: 0:39:11
