ITEM: TIMESTEP
0
ITEM: NUMBER OF ATOMS
792
ITEM: BOX BOUNDS pp pp pp
0.0000000000000000e+00 2.0000000000000000e+01
0.0000000000000000e+00 2.0000000000000000e+01
0.0000000000000000e+00 2.0000000000000000e+01
ITEM: ATOMS id type xs ys zs
1 1 0 0 0
2 1 0.09025 0.09025 0
3 1 0.09025 0 0.09025
4 1 0 0.09025 0.09025
5 1 0.1805 0 0
8 1 0.1805 0.09025 0.09025
13 1 0 0.1805 0
15 1 0.09025 0.1805 0.09025
17 1 0.1805 0.1805 0
37 1 0 0 0.1805
38 1 0.09025 0.09025 0.1805
41 1 0.1805 0 0.1805
49 1 0 0.1805 0.1805
53 1 0.1805 0.1805 0.1805
6 1 0.27075 0.09025 0
7 1 0.27075 0 0.09025
9 1 0.361 0 0
10 1 0.45125 0.09025 0
11 1 0.45125 0 0.09025
12 1 0.361 0.09025 0.09025
19 1 0.27075 0.1805 0.09025
21 1 0.361 0.1805 0
23 1 0.45125 0.1805 0.09025
42 1 0.27075 0.09025 0.1805
45 1 0.361 0 0.1805
46 1 0.45125 0.09025 0.1805
57 1 0.361 0.1805 0.1805
14 1 0.09025 0.27075 0
16 1 0 0.27075 0.09025
20 1 0.1805 0.27075 0.09025
25 1 0 0.361 0
26 1 0.09025 0.45125 0
27 1 0.09025 0.361 0.09025
28 1 0 0.45125 0.09025
29 1 0.1805 0.361 0
32 1 0.1805 0.45125 0.09025
50 1 0.09025 0.27075 0.1805
61 1 0 0.361 0.1805
62 1 0.09025 0.45125 0.1805
65 1 0.1805 0.361 0.1805
18 1 0.27075 0.27075 0
22 1 0.45125 0.27075 0
24 1 0.361 0.27075 0.09025
30 1 0.27075 0.45125 0
31 1 0.27075 0.361 0.09025
33 1 0.361 0.361 0
34 1 0.45125 0.45125 0
35 1 0.45125 0.361 0.09025
36 1 0.361 0.45125 0.09025
54 1 0.27075 0.27075 0.1805
58 1 0.45125 0.27075 0.1805
66 1 0.27075 0.45125 0.1805
69 1 0.361 0.361 0.1805
70 1 0.45125 0.45125 0.1805
39 1 0.09025 0 0.27075
40 1 0 0.09025 0.27075
44 1 0.1805 0.09025 0.27075
51 1 0.09025 0.1805 0.27075
73 1 0 0 0.361
74 1 0.09025 0.09025 0.361
75 1 0.09025 0 0.45125
76 1 0 0.09025 0.45125
77 1 0.1805 0 0.361
80 1 0.1805 0.09025 0.45125
85 1 0 0.1805 0.361
87 1 0.09025 0.1805 0.45125
89 1 0.1805 0.1805 0.361
43 1 0.27075 0 0.27075
47 1 0.45125 0 0.27075
48 1 0.361 0.09025 0.27075
55 1 0.27075 0.1805 0.27075
59 1 0.45125 0.1805 0.27075
78 1 0.27075 0.09025 0.361
79 1 0.27075 0 0.45125
81 1 0.361 0 0.361
82 1 0.45125 0.09025 0.361
83 1 0.45125 0 0.45125
84 1 0.361 0.09025 0.45125
91 1 0.27075 0.1805 0.45125
93 1 0.361 0.1805 0.361
95 1 0.45125 0.1805 0.45125
52 1 0 0.27075 0.27075
56 1 0.1805 0.27075 0.27075
63 1 0.09025 0.361 0.27075
64 1 0 0.45125 0.27075
68 1 0.1805 0.45125 0.27075
86 1 0.09025 0.27075 0.361
88 1 0 0.27075 0.45125
92 1 0.1805 0.27075 0.45125
97 1 0 0.361 0.361
98 1 0.09025 0.45125 0.361
99 1 0.09025 0.361 0.45125
100 1 0 0.45125 0.45125
101 1 0.1805 0.361 0.361
104 1 0.1805 0.45125 0.45125
60 1 0.361 0.27075 0.27075
67 1 0.27075 0.361 0.27075
71 1 0.45125 0.361 0.27075
72 1 0.361 0.45125 0.27075
90 1 0.27075 0.27075 0.361
94 1 0.45125 0.27075 0.361
96 1 0.361 0.27075 0.45125
102 1 0.27075 0.45125 0.361
103 1 0.27075 0.361 0.45125
105 1 0.361 0.361 0.361
106 1 0.45125 0.45125 0.361
107 1 0.45125 0.361 0.45125
108 1 0.361 0.45125 0.45125
109 1 0 0 0.5415
110 1 0.09025 0.09025 0.5415
111 1 0.09025 0 0.63175
112 1 0 0.09025 0.63175
113 1 0.1805 0 0.5415
116 1 0.1805 0.09025 0.63175
121 1 0 0.1805 0.5415
123 1 0.09025 0.1805 0.63175
125 1 0.1805 0.1805 0.5415
145 1 0 0 0.722
146 1 0.09025 0.09025 0.722
147 1 0.1805 0 0.722
151 1 0 0.1805 0.722
153 1 0.1805 0.1805 0.722
114 1 0.27075 0.09025 0.5415
115 1 0.27075 0 0.63175
117 1 0.361 0 0.5415
118 1 0.45125 0.09025 0.5415
119 1 0.45125 0 0.63175
120 1 0.361 0.09025 0.63175
127 1 0.27075 0.1805 0.63175
129 1 0.361 0.1805 0.5415
131 1 0.45125 0.1805 0.63175
148 1 0.27075 0.09025 0.722
149 1 0.361 0 0.722
150 1 0.45125 0.09025 0.722
155 1 0.361 0.1805 0.722
122 1 0.09025 0.27075 0.5415
124 1 0 0.27075 0.63175
128 1 0.1805 0.27075 0.63175
133 1 0 0.361 0.5415
134 1 0.09025 0.45125 0.5415
135 1 0.09025 0.361 0.63175
136 1 0 0.45125 0.63175
137 1 0.1805 0.361 0.5415
140 1 0.1805 0.45125 0.63175
152 1 0.09025 0.27075 0.722
157 1 0 0.361 0.722
158 1 0.09025 0.45125 0.722
159 1 0.1805 0.361 0.722
126 1 0.27075 0.27075 0.5415
130 1 0.45125 0.27075 0.5415
132 1 0.361 0.27075 0.63175
138 1 0.27075 0.45125 0.5415
139 1 0.27075 0.361 0.63175
141 1 0.361 0.361 0.5415
142 1 0.45125 0.45125 0.5415
143 1 0.45125 0.361 0.63175
144 1 0.361 0.45125 0.63175
154 1 0.27075 0.27075 0.722
156 1 0.45125 0.27075 0.722
160 1 0.27075 0.45125 0.722
161 1 0.361 0.361 0.722
162 1 0.45125 0.45125 0.722
649 2 0 0 0.8825
650 2 0.08825 0.08825 0.8825
651 2 0.08825 0 0.97075
652 2 0 0.08825 0.97075
653 2 0.1765 0 0.8825
656 2 0.1765 0.08825 0.97075
661 2 0 0.1765 0.8825
663 2 0.08825 0.1765 0.97075
665 2 0.1765 0.1765 0.8825
654 2 0.26475 0.08825 0.8825
655 2 0.26475 0 0.97075
657 2 0.353 0 0.8825
658 2 0.44125 0.08825 0.8825
659 2 0.44125 0 0.97075
660 2 0.353 0.08825 0.97075
667 2 0.26475 0.1765 0.97075
669 2 0.353 0.1765 0.8825
671 2 0.44125 0.1765 0.97075
662 2 0.08825 0.26475 0.8825
664 2 0 0.26475 0.97075
668 2 0.1765 0.26475 0.97075
673 2 0 0.353 0.8825
674 2 0.08825 0.44125 0.8825
675 2 0.08825 0.353 0.97075
676 2 0 0.44125 0.97075
677 2 0.1765 0.353 0.8825
680 2 0.1765 0.44125 0.97075
666 2 0.26475 0.26475 0.8825
670 2 0.44125 0.26475 0.8825
672 2 0.353 0.26475 0.97075
678 2 0.26475 0.44125 0.8825
679 2 0.26475 0.353 0.97075
681 2 0.353 0.353 0.8825
682 2 0.44125 0.44125 0.8825
683 2 0.44125 0.353 0.97075
684 2 0.353 0.44125 0.97075
163 1 0 0.5415 0
164 1 0.09025 0.63175 0
165 1 0.09025 0.5415 0.09025
166 1 0 0.63175 0.09025
167 1 0.1805 0.5415 0
170 1 0.1805 0.63175 0.09025
175 1 0 0.722 0
177 1 0.09025 0.722 0.09025
179 1 0.1805 0.722 0
199 1 0 0.5415 0.1805
200 1 0.09025 0.63175 0.1805
203 1 0.1805 0.5415 0.1805
211 1 0 0.722 0.1805
215 1 0.1805 0.722 0.1805
168 1 0.27075 0.63175 0
169 1 0.27075 0.5415 0.09025
171 1 0.361 0.5415 0
172 1 0.45125 0.63175 0
173 1 0.45125 0.5415 0.09025
174 1 0.361 0.63175 0.09025
181 1 0.27075 0.722 0.09025
183 1 0.361 0.722 0
185 1 0.45125 0.722 0.09025
204 1 0.27075 0.63175 0.1805
207 1 0.361 0.5415 0.1805
208 1 0.45125 0.63175 0.1805
219 1 0.361 0.722 0.1805
176 1 0.09025 0.81225 0
178 1 0 0.81225 0.09025
182 1 0.1805 0.81225 0.09025
187 1 0 0.9025 0
188 1 0.09025 0.99275 0
189 1 0.09025 0.9025 0.09025
190 1 0 0.99275 0.09025
191 1 0.1805 0.9025 0
194 1 0.1805 0.99275 0.09025
212 1 0.09025 0.81225 0.1805
223 1 0 0.9025 0.1805
224 1 0.09025 0.99275 0.1805
227 1 0.1805 0.9025 0.1805
180 1 0.27075 0.81225 0
184 1 0.45125 0.81225 0
186 1 0.361 0.81225 0.09025
192 1 0.27075 0.99275 0
193 1 0.27075 0.9025 0.09025
195 1 0.361 0.9025 0
196 1 0.45125 0.99275 0
197 1 0.45125 0.9025 0.09025
198 1 0.361 0.99275 0.09025
216 1 0.27075 0.81225 0.1805
220 1 0.45125 0.81225 0.1805
228 1 0.27075 0.99275 0.1805
231 1 0.361 0.9025 0.1805
232 1 0.45125 0.99275 0.1805
201 1 0.09025 0.5415 0.27075
202 1 0 0.63175 0.27075
206 1 0.1805 0.63175 0.27075
213 1 0.09025 0.722 0.27075
235 1 0 0.5415 0.361
236 1 0.09025 0.63175 0.361
237 1 0.09025 0.5415 0.45125
238 1 0 0.63175 0.45125
239 1 0.1805 0.5415 0.361
242 1 0.1805 0.63175 0.45125
247 1 0 0.722 0.361
249 1 0.09025 0.722 0.45125
251 1 0.1805 0.722 0.361
205 1 0.27075 0.5415 0.27075
209 1 0.45125 0.5415 0.27075
210 1 0.361 0.63175 0.27075
217 1 0.27075 0.722 0.27075
221 1 0.45125 0.722 0.27075
240 1 0.27075 0.63175 0.361
241 1 0.27075 0.5415 0.45125
243 1 0.361 0.5415 0.361
244 1 0.45125 0.63175 0.361
245 1 0.45125 0.5415 0.45125
246 1 0.361 0.63175 0.45125
253 1 0.27075 0.722 0.45125
255 1 0.361 0.722 0.361
257 1 0.45125 0.722 0.45125
214 1 0 0.81225 0.27075
218 1 0.1805 0.81225 0.27075
225 1 0.09025 0.9025 0.27075
226 1 0 0.99275 0.27075
230 1 0.1805 0.99275 0.27075
248 1 0.09025 0.81225 0.361
250 1 0 0.81225 0.45125
254 1 0.1805 0.81225 0.45125
259 1 0 0.9025 0.361
260 1 0.09025 0.99275 0.361
261 1 0.09025 0.9025 0.45125
262 1 0 0.99275 0.45125
263 1 0.1805 0.9025 0.361
266 1 0.1805 0.99275 0.45125
222 1 0.361 0.81225 0.27075
229 1 0.27075 0.9025 0.27075
233 1 0.45125 0.9025 0.27075
234 1 0.361 0.99275 0.27075
252 1 0.27075 0.81225 0.361
256 1 0.45125 0.81225 0.361
258 1 0.361 0.81225 0.45125
264 1 0.27075 0.99275 0.361
265 1 0.27075 0.9025 0.45125
267 1 0.361 0.9025 0.361
268 1 0.45125 0.99275 0.361
269 1 0.45125 0.9025 0.45125
270 1 0.361 0.99275 0.45125
271 1 0 0.5415 0.5415
272 1 0.09025 0.63175 0.5415
273 1 0.09025 0.5415 0.63175
274 1 0 0.63175 0.63175
275 1 0.1805 0.5415 0.5415
278 1 0.1805 0.63175 0.63175
283 1 0 0.722 0.5415
285 1 0.09025 0.722 0.63175
287 1 0.1805 0.722 0.5415
307 1 0 0.5415 0.722
308 1 0.09025 0.63175 0.722
309 1 0.1805 0.5415 0.722
313 1 0 0.722 0.722
315 1 0.1805 0.722 0.722
276 1 0.27075 0.63175 0.5415
277 1 0.27075 0.5415 0.63175
279 1 0.361 0.5415 0.5415
280 1 0.45125 0.63175 0.5415
281 1 0.45125 0.5415 0.63175
282 1 0.361 0.63175 0.63175
289 1 0.27075 0.722 0.63175
291 1 0.361 0.722 0.5415
293 1 0.45125 0.722 0.63175
310 1 0.27075 0.63175 0.722
311 1 0.361 0.5415 0.722
312 1 0.45125 0.63175 0.722
317 1 0.361 0.722 0.722
284 1 0.09025 0.81225 0.5415
286 1 0 0.81225 0.63175
290 1 0.1805 0.81225 0.63175
295 1 0 0.9025 0.5415
296 1 0.09025 0.99275 0.5415
297 1 0.09025 0.9025 0.63175
298 1 0 0.99275 0.63175
299 1 0.1805 0.9025 0.5415
302 1 0.1805 0.99275 0.63175
314 1 0.09025 0.81225 0.722
319 1 0 0.9025 0.722
320 1 0.09025 0.99275 0.722
321 1 0.1805 0.9025 0.722
288 1 0.27075 0.81225 0.5415
292 1 0.45125 0.81225 0.5415
294 1 0.361 0.81225 0.63175
300 1 0.27075 0.99275 0.5415
301 1 0.27075 0.9025 0.63175
303 1 0.361 0.9025 0.5415
304 1 0.45125 0.99275 0.5415
305 1 0.45125 0.9025 0.63175
306 1 0.361 0.99275 0.63175
316 1 0.27075 0.81225 0.722
318 1 0.45125 0.81225 0.722
322 1 0.27075 0.99275 0.722
323 1 0.361 0.9025 0.722
324 1 0.45125 0.99275 0.722
685 2 0 0.5295 0.8825
686 2 0.08825 0.61775 0.8825
687 2 0.08825 0.5295 0.97075
688 2 0 0.61775 0.97075
689 2 0.1765 0.5295 0.8825
692 2 0.1765 0.61775 0.97075
697 2 0 0.706 0.8825
699 2 0.08825 0.706 0.97075
701 2 0.1765 0.706 0.8825
690 2 0.26475 0.61775 0.8825
691 2 0.26475 0.5295 0.97075
693 2 0.353 0.5295 0.8825
694 2 0.44125 0.61775 0.8825
695 2 0.44125 0.5295 0.97075
696 2 0.353 0.61775 0.97075
703 2 0.26475 0.706 0.97075
705 2 0.353 0.706 0.8825
707 2 0.44125 0.706 0.97075
698 2 0.08825 0.79425 0.8825
700 2 0 0.79425 0.97075
704 2 0.1765 0.79425 0.97075
709 2 0 0.8825 0.8825
710 2 0.08825 0.97075 0.8825
711 2 0.08825 0.8825 0.97075
712 2 0 0.97075 0.97075
713 2 0.1765 0.8825 0.8825
716 2 0.1765 0.97075 0.97075
702 2 0.26475 0.79425 0.8825
706 2 0.44125 0.79425 0.8825
708 2 0.353 0.79425 0.97075
714 2 0.26475 0.97075 0.8825
715 2 0.26475 0.8825 0.97075
717 2 0.353 0.8825 0.8825
718 2 0.44125 0.97075 0.8825
719 2 0.44125 0.8825 0.97075
720 2 0.353 0.97075 0.97075
325 1 0.5415 0 0
326 1 0.63175 0.09025 0
327 1 0.63175 0 0.09025
328 1 0.5415 0.09025 0.09025
329 1 0.722 0 0
332 1 0.722 0.09025 0.09025
337 1 0.5415 0.1805 0
339 1 0.63175 0.1805 0.09025
341 1 0.722 0.1805 0
361 1 0.5415 0 0.1805
362 1 0.63175 0.09025 0.1805
365 1 0.722 0 0.1805
373 1 0.5415 0.1805 0.1805
377 1 0.722 0.1805 0.1805
330 1 0.81225 0.09025 0
331 1 0.81225 0 0.09025
333 1 0.9025 0 0
334 1 0.99275 0.09025 0
335 1 0.99275 0 0.09025
336 1 0.9025 0.09025 0.09025
343 1 0.81225 0.1805 0.09025
345 1 0.9025 0.1805 0
347 1 0.99275 0.1805 0.09025
366 1 0.81225 0.09025 0.1805
369 1 0.9025 0 0.1805
370 1 0.99275 0.09025 0.1805
381 1 0.9025 0.1805 0.1805
338 1 0.63175 0.27075 0
340 1 0.5415 0.27075 0.09025
344 1 0.722 0.27075 0.09025
349 1 0.5415 0.361 0
350 1 0.63175 0.45125 0
351 1 0.63175 0.361 0.09025
352 1 0.5415 0.45125 0.09025
353 1 0.722 0.361 0
356 1 0.722 0.45125 0.09025
374 1 0.63175 0.27075 0.1805
385 1 0.5415 0.361 0.1805
386 1 0.63175 0.45125 0.1805
389 1 0.722 0.361 0.1805
342 1 0.81225 0.27075 0
346 1 0.99275 0.27075 0
348 1 0.9025 0.27075 0.09025
354 1 0.81225 0.45125 0
355 1 0.81225 0.361 0.09025
357 1 0.9025 0.361 0
358 1 0.99275 0.45125 0
359 1 0.99275 0.361 0.09025
360 1 0.9025 0.45125 0.09025
378 1 0.81225 0.27075 0.1805
382 1 0.99275 0.27075 0.1805
390 1 0.81225 0.45125 0.1805
393 1 0.9025 0.361 0.1805
394 1 0.99275 0.45125 0.1805
363 1 0.63175 0 0.27075
364 1 0.5415 0.09025 0.27075
368 1 0.722 0.09025 0.27075
375 1 0.63175 0.1805 0.27075
397 1 0.5415 0 0.361
398 1 0.63175 0.09025 0.361
399 1 0.63175 0 0.45125
400 1 0.5415 0.09025 0.45125
401 1 0.722 0 0.361
404 1 0.722 0.09025 0.45125
409 1 0.5415 0.1805 0.361
411 1 0.63175 0.1805 0.45125
413 1 0.722 0.1805 0.361
367 1 0.81225 0 0.27075
371 1 0.99275 0 0.27075
372 1 0.9025 0.09025 0.27075
379 1 0.81225 0.1805 0.27075
383 1 0.99275 0.1805 0.27075
402 1 0.81225 0.09025 0.361
403 1 0.81225 0 0.45125
405 1 0.9025 0 0.361
406 1 0.99275 0.09025 0.361
407 1 0.99275 0 0.45125
408 1 0.9025 0.09025 0.45125
415 1 0.81225 0.1805 0.45125
417 1 0.9025 0.1805 0.361
419 1 0.99275 0.1805 0.45125
376 1 0.5415 0.27075 0.27075
380 1 0.722 0.27075 0.27075
387 1 0.63175 0.361 0.27075
388 1 0.5415 0.45125 0.27075
392 1 0.722 0.45125 0.27075
410 1 0.63175 0.27075 0.361
412 1 0.5415 0.27075 0.45125
416 1 0.722 0.27075 0.45125
421 1 0.5415 0.361 0.361
422 1 0.63175 0.45125 0.361
423 1 0.63175 0.361 0.45125
424 1 0.5415 0.45125 0.45125
425 1 0.722 0.361 0.361
428 1 0.722 0.45125 0.45125
384 1 0.9025 0.27075 0.27075
391 1 0.81225 0.361 0.27075
395 1 0.99275 0.361 0.27075
396 1 0.9025 0.45125 0.27075
414 1 0.81225 0.27075 0.361
418 1 0.99275 0.27075 0.361
420 1 0.9025 0.27075 0.45125
426 1 0.81225 0.45125 0.361
427 1 0.81225 0.361 0.45125
429 1 0.9025 0.361 0.361
430 1 0.99275 0.45125 0.361
431 1 0.99275 0.361 0.45125
432 1 0.9025 0.45125 0.45125
433 1 0.5415 0 0.5415
434 1 0.63175 0.09025 0.5415
435 1 0.63175 0 0.63175
436 1 0.5415 0.09025 0.63175
437 1 0.722 0 0.5415
440 1 0.722 0.09025 0.63175
445 1 0.5415 0.1805 0.5415
447 1 0.63175 0.1805 0.63175
449 1 0.722 0.1805 0.5415
469 1 0.5415 0 0.722
470 1 0.63175 0.09025 0.722
471 1 0.722 0 0.722
475 1 0.5415 0.1805 0.722
477 1 0.722 0.1805 0.722
438 1 0.81225 0.09025 0.5415
439 1 0.81225 0 0.63175
441 1 0.9025 0 0.5415
442 1 0.99275 0.09025 0.5415
443 1 0.99275 0 0.63175
444 1 0.9025 0.09025 0.63175
451 1 0.81225 0.1805 0.63175
453 1 0.9025 0.1805 0.5415
455 1 0.99275 0.1805 0.63175
472 1 0.81225 0.09025 0.722
473 1 0.9025 0 0.722
474 1 0.99275 0.09025 0.722
479 1 0.9025 0.1805 0.722
446 1 0.63175 0.27075 0.5415
448 1 0.5415 0.27075 0.63175
452 1 0.722 0.27075 0.63175
457 1 0.5415 0.361 0.5415
458 1 0.63175 0.45125 0.5415
459 1 0.63175 0.361 0.63175
460 1 0.5415 0.45125 0.63175
461 1 0.722 0.361 0.5415
464 1 0.722 0.45125 0.63175
476 1 0.63175 0.27075 0.722
481 1 0.5415 0.361 0.722
482 1 0.63175 0.45125 0.722
483 1 0.722 0.361 0.722
450 1 0.81225 0.27075 0.5415
454 1 0.99275 0.27075 0.5415
456 1 0.9025 0.27075 0.63175
462 1 0.81225 0.45125 0.5415
463 1 0.81225 0.361 0.63175
465 1 0.9025 0.361 0.5415
466 1 0.99275 0.45125 0.5415
467 1 0.99275 0.361 0.63175
468 1 0.9025 0.45125 0.63175
478 1 0.81225 0.27075 0.722
480 1 0.99275 0.27075 0.722
484 1 0.81225 0.45125 0.722
485 1 0.9025 0.361 0.722
486 1 0.99275 0.45125 0.722
721 2 0.5295 0 0.8825
722 2 0.61775 0.08825 0.8825
723 2 0.61775 0 0.97075
724 2 0.5295 0.08825 0.97075
725 2 0.706 0 0.8825
728 2 0.706 0.08825 0.97075
733 2 0.5295 0.1765 0.8825
735 2 0.61775 0.1765 0.97075
737 2 0.706 0.1765 0.8825
726 2 0.79425 0.08825 0.8825
727 2 0.79425 0 0.97075
729 2 0.8825 0 0.8825
730 2 0.97075 0.08825 0.8825
731 2 0.97075 0 0.97075
732 2 0.8825 0.08825 0.97075
739 2 0.79425 0.1765 0.97075
741 2 0.8825 0.1765 0.8825
743 2 0.97075 0.1765 0.97075
734 2 0.61775 0.26475 0.8825
736 2 0.5295 0.26475 0.97075
740 2 0.706 0.26475 0.97075
745 2 0.5295 0.353 0.8825
746 2 0.61775 0.44125 0.8825
747 2 0.61775 0.353 0.97075
748 2 0.5295 0.44125 0.97075
749 2 0.706 0.353 0.8825
752 2 0.706 0.44125 0.97075
738 2 0.79425 0.26475 0.8825
742 2 0.97075 0.26475 0.8825
744 2 0.8825 0.26475 0.97075
750 2 0.79425 0.44125 0.8825
751 2 0.79425 0.353 0.97075
753 2 0.8825 0.353 0.8825
754 2 0.97075 0.44125 0.8825
755 2 0.97075 0.353 0.97075
756 2 0.8825 0.44125 0.97075
487 1 0.5415 0.5415 0
488 1 0.63175 0.63175 0
489 1 0.63175 0.5415 0.09025
490 1 0.5415 0.63175 0.09025
491 1 0.722 0.5415 0
494 1 0.722 0.63175 0.09025
499 1 0.5415 0.722 0
501 1 0.63175 0.722 0.09025
503 1 0.722 0.722 0
523 1 0.5415 0.5415 0.1805
524 1 0.63175 0.63175 0.1805
527 1 0.722 0.5415 0.1805
535 1 0.5415 0.722 0.1805
539 1 0.722 0.722 0.1805
492 1 0.81225 0.63175 0
493 1 0.81225 0.5415 0.09025
495 1 0.9025 0.5415 0
496 1 0.99275 0.63175 0
497 1 0.99275 0.5415 0.09025
498 1 0.9025 0.63175 0.09025
505 1 0.81225 0.722 0.09025
507 1 0.9025 0.722 0
509 1 0.99275 0.722 0.09025
528 1 0.81225 0.63175 0.1805
531 1 0.9025 0.5415 0.1805
532 1 0.99275 0.63175 0.1805
543 1 0.9025 0.722 0.1805
500 1 0.63175 0.81225 0
502 1 0.5415 0.81225 0.09025
506 1 0.722 0.81225 0.09025
511 1 0.5415 0.9025 0
512 1 0.63175 0.99275 0
513 1 0.63175 0.9025 0.09025
514 1 0.5415 0.99275 0.09025
515 1 0.722 0.9025 0
518 1 0.722 0.99275 0.09025
536 1 0.63175 0.81225 0.1805
547 1 0.5415 0.9025 0.1805
548 1 0.63175 0.99275 0.1805
551 1 0.722 0.9025 0.1805
504 1 0.81225 0.81225 0
508 1 0.99275 0.81225 0
510 1 0.9025 0.81225 0.09025
516 1 0.81225 0.99275 0
517 1 0.81225 0.9025 0.09025
519 1 0.9025 0.9025 0
520 1 0.99275 0.99275 0
521 1 0.99275 0.9025 0.09025
522 1 0.9025 0.99275 0.09025
540 1 0.81225 0.81225 0.1805
544 1 0.99275 0.81225 0.1805
552 1 0.81225 0.99275 0.1805
555 1 0.9025 0.9025 0.1805
556 1 0.99275 0.99275 0.1805
525 1 0.63175 0.5415 0.27075
526 1 0.5415 0.63175 0.27075
530 1 0.722 0.63175 0.27075
537 1 0.63175 0.722 0.27075
559 1 0.5415 0.5415 0.361
560 1 0.63175 0.63175 0.361
561 1 0.63175 0.5415 0.45125
562 1 0.5415 0.63175 0.45125
563 1 0.722 0.5415 0.361
566 1 0.722 0.63175 0.45125
571 1 0.5415 0.722 0.361
573 1 0.63175 0.722 0.45125
575 1 0.722 0.722 0.361
529 1 0.81225 0.5415 0.27075
533 1 0.99275 0.5415 0.27075
534 1 0.9025 0.63175 0.27075
541 1 0.81225 0.722 0.27075
545 1 0.99275 0.722 0.27075
564 1 0.81225 0.63175 0.361
565 1 0.81225 0.5415 0.45125
567 1 0.9025 0.5415 0.361
568 1 0.99275 0.63175 0.361
569 1 0.99275 0.5415 0.45125
570 1 0.9025 0.63175 0.45125
577 1 0.81225 0.722 0.45125
579 1 0.9025 0.722 0.361
581 1 0.99275 0.722 0.45125
538 1 0.5415 0.81225 0.27075
542 1 0.722 0.81225 0.27075
549 1 0.63175 0.9025 0.27075
550 1 0.5415 0.99275 0.27075
554 1 0.722 0.99275 0.27075
572 1 0.63175 0.81225 0.361
574 1 0.5415 0.81225 0.45125
578 1 0.722 0.81225 0.45125
583 1 0.5415 0.9025 0.361
584 1 0.63175 0.99275 0.361
585 1 0.63175 0.9025 0.45125
586 1 0.5415 0.99275 0.45125
587 1 0.722 0.9025 0.361
590 1 0.722 0.99275 0.45125
546 1 0.9025 0.81225 0.27075
553 1 0.81225 0.9025 0.27075
557 1 0.99275 0.9025 0.27075
558 1 0.9025 0.99275 0.27075
576 1 0.81225 0.81225 0.361
580 1 0.99275 0.81225 0.361
582 1 0.9025 0.81225 0.45125
588 1 0.81225 0.99275 0.361
589 1 0.81225 0.9025 0.45125
591 1 0.9025 0.9025 0.361
592 1 0.99275 0.99275 0.361
593 1 0.99275 0.9025 0.45125
594 1 0.9025 0.99275 0.45125
595 1 0.5415 0.5415 0.5415
596 1 0.63175 0.63175 0.5415
597 1 0.63175 0.5415 0.63175
598 1 0.5415 0.63175 0.63175
599 1 0.722 0.5415 0.5415
602 1 0.722 0.63175 0.63175
607 1 0.5415 0.722 0.5415
609 1 0.63175 0.722 0.63175
611 1 0.722 0.722 0.5415
631 1 0.5415 0.5415 0.722
632 1 0.63175 0.63175 0.722
633 1 0.722 0.5415 0.722
637 1 0.5415 0.722 0.722
639 1 0.722 0.722 0.722
600 1 0.81225 0.63175 0.5415
601 1 0.81225 0.5415 0.63175
603 1 0.9025 0.5415 0.5415
604 1 0.99275 0.63175 0.5415
605 1 0.99275 0.5415 0.63175
606 1 0.9025 0.63175 0.63175
613 1 0.81225 0.722 0.63175
615 1 0.9025 0.722 0.5415
617 1 0.99275 0.722 0.63175
634 1 0.81225 0.63175 0.722
635 1 0.9025 0.5415 0.722
636 1 0.99275 0.63175 0.722
641 1 0.9025 0.722 0.722
608 1 0.63175 0.81225 0.5415
610 1 0.5415 0.81225 0.63175
614 1 0.722 0.81225 0.63175
619 1 0.5415 0.9025 0.5415
620 1 0.63175 0.99275 0.5415
621 1 0.63175 0.9025 0.63175
622 1 0.5415 0.99275 0.63175
623 1 0.722 0.9025 0.5415
626 1 0.722 0.99275 0.63175
638 1 0.63175 0.81225 0.722
643 1 0.5415 0.9025 0.722
644 1 0.63175 0.99275 0.722
645 1 0.722 0.9025 0.722
612 1 0.81225 0.81225 0.5415
616 1 0.99275 0.81225 0.5415
618 1 0.9025 0.81225 0.63175
624 1 0.81225 0.99275 0.5415
625 1 0.81225 0.9025 0.63175
627 1 0.9025 0.9025 0.5415
628 1 0.99275 0.99275 0.5415
629 1 0.99275 0.9025 0.63175
630 1 0.9025 0.99275 0.63175
640 1 0.81225 0.81225 0.722
642 1 0.99275 0.81225 0.722
646 1 0.81225 0.99275 0.722
647 1 0.9025 0.9025 0.722
648 1 0.99275 0.99275 0.722
757 2 0.5295 0.5295 0.8825
758 2 0.61775 0.61775 0.8825
759 2 0.61775 0.5295 0.97075
760 2 0.5295 0.61775 0.97075
761 2 0.706 0.5295 0.8825
764 2 0.706 0.61775 0.97075
769 2 0.5295 0.706 0.8825
771 2 0.61775 0.706 0.97075
773 2 0.706 0.706 0.8825
762 2 0.79425 0.61775 0.8825
763 2 0.79425 0.5295 0.97075
765 2 0.8825 0.5295 0.8825
766 2 0.97075 0.61775 0.8825
767 2 0.97075 0.5295 0.97075
768 2 0.8825 0.61775 0.97075
775 2 0.79425 0.706 0.97075
777 2 0.8825 0.706 0.8825
779 2 0.97075 0.706 0.97075
770 2 0.61775 0.79425 0.8825
772 2 0.5295 0.79425 0.97075
776 2 0.706 0.79425 0.97075
781 2 0.5295 0.8825 0.8825
782 2 0.61775 0.97075 0.8825
783 2 0.61775 0.8825 0.97075
784 2 0.5295 0.97075 0.97075
785 2 0.706 0.8825 0.8825
788 2 0.706 0.97075 0.97075
774 2 0.79425 0.79425 0.8825
778 2 0.97075 0.79425 0.8825
780 2 0.8825 0.79425 0.97075
786 2 0.79425 0.97075 0.8825
787 2 0.79425 0.8825 0.97075
789 2 0.8825 0.8825 0.8825
790 2 0.97075 0.97075 0.8825
791 2 0.97075 0.8825 0.97075
792 2 0.8825 0.97075 0.97075
ITEM: TIMESTEP
5
ITEM: NUMBER OF ATOMS
792
ITEM: BOX BOUNDS pp pp pp
0.0000000000000000e+00 2.0000000000000000e+01
0.0000000000000000e+00 2.0000000000000000e+01
0.0000000000000000e+00 2.0000000000000000e+01
ITEM: ATOMS id type xs ys zs
1 1 0.0215609 0.0215609 0.00954473
2 1 0.0894966 0.0894966 0.00225625
3 1 0.0898211 0.0015482 0.0906986
4 1 0.0015482 0.0898211 0.0906986
5 1 0.180932 0.0098521 0.0108145
8 1 0.1801 0.0908146 0.0901782
13 1 0.0098521 0.180932 0.0108145
15 1 0.0908146 0.1801 0.0901782
17 1 0.17962 0.17962 0.00223442
37 1 0.0173963 0.0173963 0.179909
38 1 0.0905744 0.0905744 0.180151
41 1 0.179788 0.00131814 0.180223
49 1 0.00131814 0.179788 0.180223
53 1 0.180401 0.180401 0.180416
6 1 0.269698 0.089996 0.002274
7 1 0.270566 0.00151974 0.0908644
9 1 0.362753 0.00952688 0.0105382
10 1 0.449605 0.0900309 0.00239438
11 1 0.45118 0.0014971 0.0907769
12 1 0.361002 0.0909608 0.0902265
19 1 0.270721 0.18041 0.0903314
21 1 0.359684 0.179747 0.00231931
23 1 0.45126 0.180423 0.0903353
42 1 0.270694 0.0910656 0.180384
45 1 0.360992 0.00134734 0.18032
46 1 0.45125 0.0910862 0.180396
57 1 0.361 0.180477 0.180457
14 1 0.089996 0.269698 0.002274
16 1 0.00151974 0.270566 0.0908644
20 1 0.18041 0.270721 0.0903314
25 1 0.00952688 0.362753 0.0105382
26 1 0.0900309 0.449605 0.00239438
27 1 0.0909608 0.361002 0.0902265
28 1 0.0014971 0.45118 0.0907769
29 1 0.179747 0.359684 0.00231931
32 1 0.180423 0.45126 0.0903353
50 1 0.0910656 0.270694 0.180384
61 1 0.00134734 0.360992 0.18032
62 1 0.0910862 0.45125 0.180396
65 1 0.180477 0.361 0.180457
18 1 0.269767 0.269767 0.00230123
22 1 0.449616 0.269824 0.00243775
24 1 0.361008 0.270743 0.0903706
30 1 0.269824 0.449616 0.00243775
31 1 0.270743 0.361008 0.0903706
33 1 0.359738 0.359738 0.00242015
34 1 0.449704 0.449704 0.00257017
35 1 0.45126 0.361008 0.0903695
36 1 0.361008 0.45126 0.0903695
54 1 0.270742 0.270742 0.180471
58 1 0.45125 0.270743 0.180473
66 1 0.270743 0.45125 0.180473
69 1 0.361 0.361 0.180474
70 1 0.45125 0.45125 0.180474
39 1 0.0906521 0.00169978 0.27024
40 1 0.00169978 0.0906521 0.27024
44 1 0.180321 0.091027 0.270683
51 1 0.091027 0.180321 0.270683
73 1 0.0172408 0.0172408 0.360914
74 1 0.0909296 0.0909296 0.360958
75 1 0.0907388 0.00173477 0.451243
76 1 0.00173477 0.0907388 0.451243
77 1 0.180277 0.00135037 0.360973
80 1 0.180379 0.0910689 0.45125
85 1 0.00135037 0.180277 0.360973
87 1 0.0910689 0.180379 0.45125
89 1 0.180466 0.180466 0.360998
43 1 0.270686 0.00134913 0.270716
47 1 0.45125 0.00135163 0.27073
48 1 0.360999 0.0911238 0.27074
55 1 0.27074 0.18049 0.270747
59 1 0.45125 0.180493 0.270748
78 1 0.270731 0.0911226 0.360998
79 1 0.270712 0.00135133 0.451249
81 1 0.360998 0.00135231 0.360999
82 1 0.45125 0.0911278 0.361
83 1 0.45125 0.00135264 0.451249
84 1 0.361 0.091128 0.45125
91 1 0.270742 0.180493 0.451251
93 1 0.361 0.180494 0.361
95 1 0.45125 0.180495 0.451251
52 1 0.00134913 0.270686 0.270716
56 1 0.18049 0.27074 0.270747
63 1 0.0911238 0.360999 0.27074
64 1 0.00135163 0.45125 0.27073
68 1 0.180493 0.45125 0.270748
86 1 0.0911226 0.270731 0.360998
88 1 0.00135133 0.270712 0.451249
92 1 0.180493 0.270742 0.451251
97 1 0.00135231 0.360998 0.360999
98 1 0.0911278 0.45125 0.361
99 1 0.091128 0.361 0.45125
100 1 0.00135264 0.45125 0.451249
101 1 0.180494 0.361 0.361
104 1 0.180495 0.45125 0.451251
60 1 0.361001 0.270744 0.27075
67 1 0.270744 0.361001 0.27075
71 1 0.45125 0.361001 0.27075
72 1 0.361001 0.45125 0.27075
90 1 0.270744 0.270744 0.361
94 1 0.45125 0.270745 0.361001
96 1 0.361001 0.270745 0.451251
102 1 0.270745 0.45125 0.361001
103 1 0.270745 0.361001 0.451251
105 1 0.361001 0.361001 0.361001
106 1 0.45125 0.45125 0.361001
107 1 0.45125 0.361001 0.451251
108 1 0.361001 0.45125 0.451251
109 1 0.0172486 0.0172486 0.541425
110 1 0.0909458 0.0909458 0.541471
111 1 0.0907768 0.00172695 0.631723
112 1 0.00172695 0.0907768 0.631723
113 1 0.180291 0.00135231 0.541478
116 1 0.180399 0.0910843 0.631735
121 1 0.00135231 0.180291 0.541478
123 1 0.0910843 0.180399 0.631735
125 1 0.18047 0.18047 0.541491
145 1 0.0171722 0.0171722 0.722867
146 1 0.091064 0.091064 0.72203
147 1 0.180383 0.00124316 0.723631
151 1 0.00124316 0.180383 0.723631
153 1 0.180479 0.180479 0.722117
114 1 0.270733 0.0911277 0.541484
115 1 0.270717 0.00134829 0.63181
117 1 0.360998 0.00135294 0.541481
118 1 0.45125 0.0911323 0.541485
119 1 0.451251 0.00134981 0.631812
120 1 0.361 0.0911408 0.631753
127 1 0.270744 0.180507 0.631755
129 1 0.361001 0.180497 0.541493
131 1 0.451251 0.180508 0.631756
148 1 0.27074 0.0911439 0.722117
149 1 0.361001 0.00124059 0.723662
150 1 0.451251 0.0911477 0.72212
155 1 0.361001 0.1805 0.722116
122 1 0.0911277 0.270733 0.541484
124 1 0.00134829 0.270717 0.63181
128 1 0.180507 0.270744 0.631755
133 1 0.00135294 0.360998 0.541481
134 1 0.0911323 0.45125 0.541485
135 1 0.0911408 0.361 0.631753
136 1 0.00134981 0.451251 0.631812
137 1 0.180497 0.361001 0.541493
140 1 0.180508 0.451251 0.631756
152 1 0.0911439 0.27074 0.722117
157 1 0.00124059 0.361001 0.723662
158 1 0.0911477 0.451251 0.72212
159 1 0.1805 0.361001 0.722116
126 1 0.270745 0.270745 0.541495
130 1 0.45125 0.270745 0.541495
132 1 0.361001 0.270747 0.631766
138 1 0.270745 0.45125 0.541495
139 1 0.270747 0.361001 0.631766
141 1 0.361001 0.361001 0.541496
142 1 0.45125 0.45125 0.541496
143 1 0.45125 0.361001 0.631767
144 1 0.361001 0.45125 0.631767
154 1 0.27075 0.27075 0.722108
156 1 0.451251 0.27075 0.722109
160 1 0.27075 0.451251 0.722109
161 1 0.361002 0.361002 0.722108
162 1 0.451251 0.451251 0.722109
649 2 0.0106328 0.0106328 0.879906
650 2 0.0883359 0.0883359 0.882524
651 2 0.0881109 0.00589918 0.952794
652 2 0.00589918 0.0881109 0.952794
653 2 0.17635 0.00174074 0.880772
656 2 0.17653 0.0884076 0.969196
661 2 0.00174074 0.17635 0.880772
663 2 0.0884076 0.17653 0.969196
665 2 0.176372 0.176372 0.882311
654 2 0.264705 0.0883285 0.882312
655 2 0.261698 0.00566257 0.953068
657 2 0.352986 0.00170514 0.880686
658 2 0.441247 0.0883229 0.882303
659 2 0.436776 0.0053722 0.953701
660 2 0.354145 0.0884284 0.968892
667 2 0.265564 0.176898 0.968944
669 2 0.352993 0.176424 0.882222
671 2 0.442765 0.176884 0.968803
662 2 0.0883285 0.264705 0.882312
664 2 0.00566257 0.261698 0.953068
668 2 0.176898 0.265564 0.968944
673 2 0.00170514 0.352986 0.880686
674 2 0.0883229 0.441247 0.882303
675 2 0.0884284 0.354145 0.968892
676 2 0.0053722 0.436776 0.953701
677 2 0.176424 0.352993 0.882222
680 2 0.176884 0.442765 0.968803
666 2 0.264732 0.264732 0.882189
670 2 0.441239 0.264733 0.882188
672 2 0.354175 0.265571 0.968806
678 2 0.264733 0.441239 0.882188
679 2 0.265571 0.354175 0.968806
681 2 0.352991 0.352991 0.882184
682 2 0.441238 0.441238 0.882189
683 2 0.442707 0.354111 0.968676
684 2 0.354111 0.442707 0.968676
163 1 0.00912836 0.543795 0.0103566
164 1 0.0900695 0.629378 0.00258633
165 1 0.0909597 0.541508 0.090219
166 1 0.00147107 0.63168 0.0906731
167 1 0.179792 0.539482 0.0024912
170 1 0.180423 0.631763 0.0903295
175 1 0.00861349 0.724621 0.0101662
177 1 0.0909351 0.722071 0.0902108
179 1 0.179849 0.719265 0.0027302
199 1 0.00134776 0.541499 0.180321
200 1 0.0910856 0.631751 0.180396
203 1 0.180477 0.541499 0.180458
211 1 0.00134316 0.722114 0.180307
215 1 0.18047 0.722015 0.180455
168 1 0.269901 0.629399 0.00264317
169 1 0.270743 0.541512 0.0903661
171 1 0.359825 0.539559 0.00258856
172 1 0.449833 0.62952 0.00277002
173 1 0.45126 0.541512 0.0903652
174 1 0.361008 0.631763 0.0903638
181 1 0.270743 0.722031 0.0903561
183 1 0.359946 0.719362 0.00282276
185 1 0.45126 0.722029 0.0903548
204 1 0.270743 0.631749 0.180473
207 1 0.361 0.5415 0.180474
208 1 0.45125 0.631749 0.180474
219 1 0.361 0.722007 0.180473
176 1 0.090042 0.809352 0.00291047
178 1 0.00136946 0.812959 0.0906013
182 1 0.180355 0.812411 0.0902992
187 1 0.00785851 0.904094 0.0113937
188 1 0.0914344 0.987272 0.0188221
189 1 0.09046 0.902276 0.0902586
190 1 0.0176334 0.975259 0.0909014
191 1 0.17991 0.898493 0.0038082
194 1 0.179716 0.991382 0.0902326
212 1 0.0909276 0.812542 0.180339
223 1 0.0013751 0.90284 0.179725
224 1 0.0899102 0.991372 0.179732
227 1 0.180209 0.901822 0.180339
180 1 0.27 0.809272 0.00291745
184 1 0.450003 0.809421 0.00303553
186 1 0.361007 0.812345 0.090319
192 1 0.273605 0.987494 0.0176184
193 1 0.270692 0.901817 0.0902124
195 1 0.360269 0.898576 0.00377699
196 1 0.455755 0.987867 0.0169378
197 1 0.451256 0.901798 0.0902013
198 1 0.361 0.991314 0.0901829
216 1 0.270734 0.812281 0.180453
220 1 0.451249 0.812274 0.180455
228 1 0.270636 0.991403 0.180318
231 1 0.360997 0.901663 0.180395
232 1 0.45125 0.991399 0.180331
201 1 0.0911243 0.5415 0.27074
202 1 0.0013514 0.631754 0.27073
206 1 0.180493 0.631749 0.270748
213 1 0.0911137 0.722031 0.270732
235 1 0.00135248 0.5415 0.360999
236 1 0.0911275 0.63175 0.361