ITEM: TIMESTEP
0
ITEM: NUMBER OF ATOMS
792
ITEM: BOX BOUNDS pp pp pp
0.0000000000000000e+00 2.0000000000000000e+01
0.0000000000000000e+00 2.0000000000000000e+01
0.0000000000000000e+00 2.0000000000000000e+01
ITEM: ATOMS id type xs ys zs
3 1 0.112789 0.0292428 0.0884527
4 1 0.0292434 0.112788 0.0884534
8 1 0.195252 0.111745 0.0891481
15 1 0.111745 0.195251 0.0891487
37 1 0.028946 0.0289452 0.181229
38 1 0.111477 0.111477 0.180765
41 1 0.194363 0.0278909 0.181326
49 1 0.0278911 0.194362 0.181326
53 1 0.193625 0.193624 0.184484
6 1 0.280484 0.110587 2.74314e-05
7 1 0.277979 0.027257 0.0912355
9 1 0.364929 0.0239361 0.00572555
10 1 0.444454 0.109092 0.0119219
11 1 0.444173 0.0257972 0.0980791
12 1 0.359946 0.109581 0.0963853
19 1 0.276667 0.19328 0.0958085
21 1 0.360077 0.193251 0.010068
23 1 0.442869 0.193098 0.102009
42 1 0.276819 0.11006 0.184648
45 1 0.36002 0.0266646 0.18499
46 1 0.443573 0.109523 0.188026
57 1 0.359997 0.192518 0.189689
14 1 0.110587 0.280482 2.86157e-05
16 1 0.0272572 0.277979 0.0912362
20 1 0.193281 0.276666 0.0958087
25 1 0.0239372 0.364927 0.00572686
26 1 0.109094 0.444452 0.0119222
27 1 0.109582 0.359945 0.0963862
28 1 0.0257989 0.444172 0.0980798
29 1 0.193252 0.360075 0.0100695
32 1 0.193099 0.442867 0.102009
50 1 0.11006 0.276818 0.184648
61 1 0.0266653 0.360019 0.184991
62 1 0.109524 0.443573 0.188026
65 1 0.192519 0.359996 0.189689
18 1 0.276965 0.276962 0.00984135
22 1 0.442566 0.277638 0.0187314
24 1 0.359288 0.275765 0.103938
30 1 0.277641 0.442564 0.0187312
31 1 0.275767 0.359286 0.103938
33 1 0.359933 0.35993 0.0214056
34 1 0.443953 0.443951 0.0271154
35 1 0.443368 0.359729 0.110108
36 1 0.359731 0.443366 0.110108
54 1 0.276253 0.276252 0.190224
58 1 0.443839 0.275875 0.194532
66 1 0.275876 0.443838 0.194532
69 1 0.359799 0.359798 0.195464
70 1 0.443905 0.443905 0.199593
39 1 0.111409 0.0274457 0.272236
40 1 0.0274461 0.111409 0.272236
44 1 0.194192 0.110105 0.273636
51 1 0.110105 0.194192 0.273637
73 1 0.0273061 0.0273059 0.36179
74 1 0.11057 0.11057 0.361716
75 1 0.111747 0.0255403 0.448377
76 1 0.0255402 0.111747 0.448377
77 1 0.196004 0.0249703 0.362063
80 1 0.195422 0.109194 0.449143
85 1 0.0249702 0.196004 0.362063
87 1 0.109193 0.195423 0.449143
89 1 0.193955 0.193955 0.363634
43 1 0.277877 0.0260086 0.274089
47 1 0.444449 0.0255188 0.275373
48 1 0.361381 0.108616 0.276805
55 1 0.277408 0.192958 0.277186
59 1 0.445312 0.191721 0.280254
78 1 0.279371 0.10803 0.363691
79 1 0.281712 0.0222768 0.44928
81 1 0.365393 0.0213849 0.363622
82 1 0.449163 0.104195 0.365107
83 1 0.483274 0.0718607 0.473447
84 1 0.365393 0.105238 0.450369
91 1 0.279341 0.192961 0.451161
93 1 0.363192 0.19148 0.36661
95 1 0.449348 0.188221 0.452938
52 1 0.0260088 0.277877 0.27409
56 1 0.192958 0.277408 0.277187
63 1 0.108616 0.361381 0.276805
64 1 0.0255196 0.444449 0.275372
68 1 0.191722 0.445312 0.280254
86 1 0.10803 0.279371 0.363691
88 1 0.0222763 0.281713 0.44928
92 1 0.192961 0.279342 0.451161
97 1 0.0213846 0.365393 0.363622
98 1 0.104194 0.449165 0.365107
99 1 0.105237 0.365394 0.450368
100 1 0.0718587 0.483275 0.473447
101 1 0.19148 0.363192 0.36661
104 1 0.18822 0.449349 0.452937
108 1 0.360165 0.44728 0.461239
107 1 0.447278 0.360167 0.46124
106 1 0.444929 0.44493 0.376026
105 1 0.36164 0.361641 0.371266
103 1 0.277029 0.363554 0.455126
60 1 0.36112 0.27637 0.281394
67 1 0.27637 0.36112 0.281394
71 1 0.445019 0.36006 0.285516
72 1 0.36006 0.445019 0.285516
90 1 0.277763 0.277763 0.366989
94 1 0.447233 0.275083 0.370559
96 1 0.363553 0.27703 0.455126
102 1 0.275083 0.447234 0.370558
109 1 0.0262806 0.0262811 0.533479
110 1 0.110392 0.110392 0.533648
111 1 0.110826 0.0251666 0.6178
112 1 0.0251663 0.110826 0.6178
113 1 0.19663 0.0240589 0.534136
116 1 0.195235 0.109547 0.618557
121 1 0.0240584 0.19663 0.534135
123 1 0.109546 0.195236 0.618557
125 1 0.194609 0.19461 0.535092
145 1 0.0248586 0.0248585 0.700518
146 1 0.109668 0.109668 0.700344
147 1 0.220286 0.0880092 0.733862
151 1 0.0880073 0.220285 0.733862
153 1 0.194318 0.194319 0.702038
474 1 0.00305194 0.135502 0.732708
320 1 0.135501 0.00305307 0.732709
114 1 0.28053 0.107801 0.535171
115 1 0.308423 0.0821563 0.648064
117 1 0.396033 0.076617 0.560761
118 1 0.48263 0.158024 0.561325
119 1 0.478036 0.0772944 0.648678
120 1 0.394459 0.16395 0.647674
127 1 0.279671 0.19401 0.621061
129 1 0.364572 0.191011 0.537149
131 1 0.484831 0.241484 0.649239
148 1 0.305652 0.171473 0.735328
149 1 0.387366 0.0875752 0.73757
150 1 0.477862 0.16356 0.733702
155 1 0.394561 0.249767 0.733605
322 1 0.301853 0.00466344 0.737734
324 1 0.471677 0.00175301 0.738142
122 1 0.1078 0.280531 0.535171
124 1 0.0821534 0.308423 0.648063
128 1 0.194007 0.279673 0.62106
133 1 0.076614 0.396035 0.56076
134 1 0.15802 0.482633 0.561324
135 1 0.163943 0.394462 0.64767
136 1 0.0772879 0.478042 0.648675
137 1 0.191009 0.364574 0.537147
140 1 0.241477 0.484835 0.649237
152 1 0.171468 0.305652 0.735326
157 1 0.0875717 0.387367 0.737568
158 1 0.163547 0.477872 0.733696
159 1 0.249751 0.394569 0.7336
480 1 0.00466221 0.301853 0.737735
486 1 0.00175338 0.471678 0.738144
126 1 0.278799 0.278801 0.537882
130 1 0.448375 0.273599 0.542812
132 1 0.363167 0.277354 0.625742
138 1 0.273595 0.448378 0.542811
139 1 0.27735 0.363172 0.62574
141 1 0.362941 0.362944 0.545389
142 1 0.444136 0.444139 0.555388
143 1 0.447707 0.35629 0.64118
144 1 0.356283 0.447716 0.641178
154 1 0.278567 0.278573 0.709105
156 1 0.49443 0.31061 0.744729
160 1 0.310597 0.494436 0.744731
161 1 0.360313 0.360327 0.723361
162 1 0.442027 0.442036 0.728288
650 2 0.0486969 0.0487016 0.812528
651 2 0.117146 0.0299382 0.905657
652 2 0.0299383 0.117147 0.905658
653 2 0.206285 0.0180832 0.82641
656 2 0.20143 0.114173 0.90532
661 2 0.0180823 0.206285 0.826411
663 2 0.114173 0.201429 0.90532
665 2 0.129031 0.129031 0.813862
666 2 0.212512 0.212514 0.815835
1 1 0.0307576 0.0307571 0.997695
2 1 0.113974 0.113972 0.996598
5 1 0.197442 0.0277913 0.998441
13 1 0.0277923 0.197441 0.998442
17 1 0.196636 0.196635 0.997897
654 2 0.291734 0.102104 0.827601
655 2 0.286268 0.0213631 0.912692
657 2 0.378074 0.0140123 0.829063
658 2 0.467536 0.0939468 0.827252
659 2 0.45555 0.0187448 0.917478
660 2 0.371311 0.104102 0.914873
667 2 0.28605 0.196806 0.906812
669 2 0.381128 0.180954 0.827191
671 2 0.442795 0.195407 0.925479
662 2 0.102104 0.291733 0.827601
664 2 0.0213635 0.286267 0.912692
668 2 0.196806 0.286047 0.906814
673 2 0.0140121 0.378073 0.829063
674 2 0.0939535 0.467529 0.827255
675 2 0.104103 0.371309 0.914873
676 2 0.0187478 0.455547 0.91748
677 2 0.180957 0.381123 0.827193
680 2 0.19541 0.442791 0.925479
757 2 0.48333 0.483324 0.829508
670 2 0.432613 0.284989 0.839554
672 2 0.361189 0.28053 0.925319
678 2 0.285004 0.432591 0.839548
679 2 0.28053 0.361184 0.925322
681 2 0.300243 0.30024 0.822854
682 2 0.393118 0.3931 0.829563
683 2 0.442285 0.363562 0.934519
684 2 0.363564 0.442278 0.934518
163 1 0.0250618 0.528627 0.0129842
164 1 0.112597 0.609303 0.0127394
165 1 0.110493 0.526924 0.0999861
166 1 0.0272349 0.611485 0.0996803
167 1 0.195798 0.525664 0.0151858
170 1 0.195217 0.609873 0.101232
175 1 0.0289157 0.693751 0.0108936
177 1 0.111908 0.694138 0.0977392
179 1 0.197961 0.690381 0.0107033
199 1 0.0269044 0.527447 0.186968
200 1 0.110745 0.611012 0.186926
203 1 0.193028 0.527429 0.1912
211 1 0.0284547 0.694886 0.187987
215 1 0.194348 0.694513 0.186865
168 1 0.280396 0.607552 0.0159828
169 1 0.277273 0.526632 0.106436
171 1 0.361806 0.52598 0.022948
172 1 0.445524 0.609483 0.024297
173 1 0.443902 0.527695 0.113472
174 1 0.361057 0.610459 0.108615
181 1 0.278829 0.692918 0.101303
183 1 0.36382 0.690546 0.0162763
185 1 0.444688 0.694036 0.109034
204 1 0.276669 0.611431 0.193764
207 1 0.359732 0.528057 0.198333
208 1 0.443559 0.612028 0.20037
219 1 0.360141 0.695061 0.194969
176 1 0.114036 0.774746 0.0064332
178 1 0.0294196 0.778923 0.0964881
182 1 0.195451 0.776789 0.0957395
187 1 0.0309154 0.861668 0.00264448
189 1 0.112367 0.861525 0.0922343
190 1 0.0301689 0.94652 0.0906393
191 1 0.197763 0.857491 0.00437979
194 1 0.195205 0.944463 0.0905343
212 1 0.111587 0.778291 0.185116
223 1 0.0292905 0.862324 0.185001
224 1 0.111793 0.945215 0.181746
227 1 0.19436 0.86136 0.183096
180 1 0.281634 0.77318 0.00976236
184 1 0.447207 0.774 0.0162016
186 1 0.362075 0.77605 0.101181
192 1 0.281373 0.940842 0.00416087
193 1 0.278556 0.859776 0.0949232
195 1 0.36506 0.856583 0.00959784
196 1 0.448459 0.939773 0.0100981
197 1 0.445325 0.859179 0.101131
198 1 0.361636 0.942739 0.0954985
216 1 0.2775 0.777686 0.186561
220 1 0.443568 0.778348 0.194925
228 1 0.277112 0.944193 0.182874
231 1 0.360506 0.860648 0.186523
232 1 0.443791 0.943473 0.186956
201 1 0.108484 0.528453 0.27693
202 1 0.0293458 0.609979 0.277129
206 1 0.19175 0.612515 0.278866
213 1 0.112295 0.693818 0.27541
235 1 0.0686128 0.56849 0.38378
236 1 0.151235 0.65316 0.383857
237 1 0.153771 0.569104 0.474554
238 1 0.0655725 0.65289 0.47379
239 1 0.187298 0.533127 0.367732
242 1 0.235299 0.654357 0.476495
247 1 0.033682 0.688717 0.365587
249 1 0.147888 0.738533 0.472946
251 1 0.234048 0.737181 0.384323
205 1 0.275193 0.529342 0.283774
209 1 0.443655 0.528684 0.288977
210 1 0.358719 0.613086 0.286702
217 1 0.275115 0.696357 0.280501
221 1 0.442123 0.696484 0.287975
240 1 0.270599 0.616797 0.370952
241 1 0.270929 0.533176 0.458071
243 1 0.358302 0.530826 0.375048
244 1 0.441224 0.61375 0.378325
245 1 0.442111 0.529592 0.46739
246 1 0.353238 0.616848 0.463228
253 1 0.317295 0.737226 0.478926
255 1 0.353896 0.700401 0.373163
257 1 0.436523 0.700805 0.46377
214 1 0.0294359 0.776903 0.277007
218 1 0.195103 0.77735 0.274332
225 1 0.112292 0.860424 0.27424
226 1 0.0286061 0.944499 0.273851
230 1 0.194983 0.94344 0.273022
248 1 0.11643 0.772589 0.363546
250 1 0.0324692 0.771903 0.450718
254 1 0.23101 0.822515 0.47345
259 1 0.0297119 0.858445 0.363944
260 1 0.112915 0.941896 0.362092
261 1 0.11534 0.85579 0.449194
262 1 0.0280514 0.941768 0.449265
263 1 0.199236 0.855868 0.362896
266 1 0.198425 0.939149 0.448861
270 1 0.398429 0.989209 0.473351
222 1 0.358483 0.779921 0.281144
229 1 0.277798 0.860358 0.273978
233 1 0.442143 0.863193 0.280604
234 1 0.3608 0.942931 0.274397
252 1 0.317018 0.820279 0.384909
256 1 0.437512 0.784101 0.373081
258 1 0.399873 0.819687 0.47898
264 1 0.282108 0.938714 0.36296
265 1 0.314511 0.906014 0.473548
267 1 0.400211 0.903169 0.384664
268 1 0.484001 0.985936 0.384074
269 1 0.482849 0.902071 0.477646
271 1 0.069535 0.56731 0.561259
272 1 0.148731 0.655849 0.561482
273 1 0.152606 0.569299 0.64682
274 1 0.065289 0.655022 0.647278
275 1 0.23755 0.570808 0.564608
278 1 0.224305 0.661243 0.654257
283 1 0.0611708 0.739784 0.560818
285 1 0.13908 0.74602 0.651458
287 1 0.2288 0.741382 0.564375
307 1 0.0763698 0.563806 0.732969
308 1 0.130848 0.668545 0.741767
309 1 0.217501 0.582645 0.74208
276 1 0.31664 0.655376 0.570441
277 1 0.314438 0.574556 0.659514
279 1 0.353931 0.532503 0.552642
280 1 0.436166 0.616753 0.553727
281 1 0.437187 0.531507 0.642531
282 1 0.398711 0.654857 0.661262
289 1 0.308705 0.744053 0.654825
291 1 0.399435 0.737144 0.571329
293 1 0.481315 0.737216 0.661229
310 1 0.304807 0.663911 0.741711
311 1 0.398909 0.571296 0.746618
312 1 0.482034 0.653625 0.747725
317 1 0.388991 0.747418 0.741785
313 1 0.0477415 0.752274 0.740048
315 1 0.217245 0.750906 0.740186
284 1 0.143301 0.825494 0.560815
286 1 0.0549384 0.828339 0.647836
290 1 0.22306 0.82968 0.651207
295 1 0.0294758 0.856092 0.535146
296 1 0.112946 0.940267 0.534013
297 1 0.139274 0.913265 0.647448
298 1 0.0265305 0.940896 0.618083
299 1 0.227177 0.90968 0.560839
302 1 0.223724 0.998041 0.647664
314 1 0.132723 0.83574 0.738251
319 1 0.0509361 0.917268 0.732219
321 1 0.217123 0.920377 0.737675
288 1 0.312179 0.824542 0.564829
292 1 0.481947 0.819516 0.570362
294 1 0.392433 0.827573 0.654597
300 1 0.31124 0.993628 0.560873
301 1 0.307036 0.913718 0.651022
303 1 0.395647 0.907758 0.564331
304 1 0.480223 0.989812 0.563012
305 1 0.476444 0.910568 0.653398
306 1 0.391342 0.997128 0.650562
316 1 0.301697 0.835126 0.739747
318 1 0.472996 0.830925 0.741166
323 1 0.386217 0.919147 0.739392
685 2 0.00909359 0.55015 0.827698
686 2 0.118629 0.59801 0.835952
687 2 0.111653 0.526194 0.9254
688 2 0.0269903 0.609657 0.924653
689 2 0.203083 0.515451 0.837187
692 2 0.201017 0.603176 0.92251
697 2 0.0330482 0.682649 0.835078
699 2 0.116897 0.686281 0.919698
701 2 0.208965 0.67572 0.831313
690 2 0.293276 0.592311 0.833722
691 2 0.282519 0.521396 0.926947
693 2 0.373261 0.510914 0.843917
694 2 0.456271 0.595993 0.847119
695 2 0.446838 0.52486 0.937558
696 2 0.366209 0.603586 0.928357
703 2 0.285796 0.684781 0.921315
705 2 0.376902 0.67628 0.834815
707 2 0.4497 0.687193 0.929176
698 2 0.122792 0.761774 0.830566
700 2 0.0318279 0.772261 0.916554
704 2 0.202568 0.767778 0.917143
709 2 0.034122 0.851215 0.828194
710 2 0.120383 0.934405 0.826521
711 2 0.117164 0.853964 0.912876
712 2 0.0325158 0.945779 0.907819
713 2 0.208242 0.845492 0.829023
716 2 0.201747 0.937444 0.912045
188 1 0.114173 0.944516 0.999199
720 2 0.371007 0.935535 0.916686
719 2 0.45309 0.852113 0.920982
718 2 0.462258 0.928121 0.830226
702 2 0.293568 0.759628 0.830846
706 2 0.460841 0.759627 0.83464
708 2 0.369417 0.76835 0.921291
714 2 0.293299 0.929508 0.828666
715 2 0.286765 0.851444 0.916562
717 2 0.378186 0.843501 0.830465
325 1 0.528629 0.0250585 0.0129837
326 1 0.609306 0.112592 0.0127404
327 1 0.611486 0.0272317 0.0996805
328 1 0.526925 0.110491 0.0999867
329 1 0.693753 0.0289114 0.0108935
332 1 0.694139 0.111905 0.0977403
337 1 0.525667 0.195794 0.0151873
339 1 0.609874 0.195214 0.101234
341 1 0.690383 0.197956 0.0107063
361 1 0.527447 0.0269029 0.186968
362 1 0.611012 0.110743 0.186927
365 1 0.694886 0.0284525 0.187988
373 1 0.52743 0.193026 0.191202
377 1 0.694513 0.194346 0.186865
330 1 0.774748 0.114032 0.00643546
331 1 0.778924 0.0294173 0.0964894
333 1 0.86167 0.0309162 0.0026494
335 1 0.946522 0.0301676 0.0906402
336 1 0.861526 0.112366 0.0922366
343 1 0.776791 0.195448 0.0957405
345 1 0.857492 0.197761 0.00438044
347 1 0.944464 0.195204 0.0905348
366 1 0.778291 0.111586 0.185117
369 1 0.862325 0.0292893 0.185001
370 1 0.945215 0.111792 0.181746
381 1 0.861361 0.194359 0.183097
338 1 0.607555 0.280393 0.0159857
340 1 0.526634 0.277271 0.106437
344 1 0.69292 0.278827 0.101304
349 1 0.525984 0.361804 0.02295
350 1 0.609485 0.445524 0.0242985
351 1 0.610461 0.361056 0.108616
352 1 0.527695 0.443901 0.113473
353 1 0.690548 0.363818 0.0162776
356 1 0.694037 0.444688 0.109035
374 1 0.611432 0.276668 0.193765
385 1 0.528058 0.359732 0.198333
386 1 0.612029 0.443559 0.20037
389 1 0.695062 0.360141 0.19497
342 1 0.773181 0.281631 0.0097641
346 1 0.940842 0.281372 0.00416158
348 1 0.859776 0.278554 0.0949244
354 1 0.773999 0.447207 0.0162028
355 1 0.776051 0.362074 0.101182
357 1 0.856582 0.365059 0.00959891
358 1 0.939774 0.448458 0.0100996
359 1 0.94274 0.361635 0.0954994
360 1 0.85918 0.445325 0.101132
378 1 0.777687 0.277499 0.186562
382 1 0.944193 0.277112 0.182875
390 1 0.778349 0.443569 0.194926
393 1 0.860648 0.360505 0.186524
394 1 0.943474 0.44379 0.186957
363 1 0.609979 0.0293443 0.277129
364 1 0.528453 0.108483 0.276931
368 1 0.693818 0.112294 0.27541
375 1 0.612515 0.191749 0.278867
397 1 0.56849 0.0686137 0.383781
398 1 0.653159 0.151235 0.383858
399 1 0.652888 0.0655744 0.47379
400 1 0.569101 0.153773 0.474554
401 1 0.688716 0.0336821 0.365587
404 1 0.738532 0.14789 0.472946
409 1 0.533126 0.187299 0.367732
411 1 0.654356 0.235301 0.476495
413 1 0.73718 0.234049 0.384324
367 1 0.776903 0.029435 0.277007
371 1 0.944499 0.0286057 0.273851
372 1 0.860424 0.112291 0.27424
379 1 0.77735 0.195102 0.274333
383 1 0.94344 0.194983 0.273023
402 1 0.772588 0.11643 0.363546
403 1 0.771901 0.0324702 0.450717
405 1 0.858444 0.0297118 0.363944
406 1 0.941896 0.112915 0.362092
407 1 0.941768 0.0280516 0.449265
408 1 0.855789 0.11534 0.449194
415 1 0.822515 0.231011 0.47345
417 1 0.855868 0.199236 0.362896
419 1 0.939148 0.198425 0.448861
376 1 0.529342 0.275193 0.283775
380 1 0.696357 0.275115 0.280501
387 1 0.613086 0.358719 0.286702
388 1 0.528684 0.443655 0.288977
392 1 0.696484 0.442123 0.287975
410 1 0.616796 0.2706 0.370953
412 1 0.533173 0.270931 0.458072
416 1 0.737226 0.317296 0.478927
421 1 0.530825 0.358302 0.375048
422 1 0.613749 0.441224 0.378326
423 1 0.616847 0.353239 0.46323
424 1 0.529591 0.442112 0.46739
425 1 0.7004 0.353896 0.373164
428 1 0.700804 0.436524 0.463771
432 1 0.90207 0.48285 0.477646
384 1 0.860358 0.277798 0.273978
391 1 0.779921 0.358483 0.281144
395 1 0.942931 0.3608 0.274397
396 1 0.863194 0.442143 0.280605
414 1 0.820278 0.317018 0.38491
418 1 0.938713 0.282108 0.36296
420 1 0.906013 0.314511 0.473548
426 1 0.784101 0.437513 0.373082
427 1 0.819686 0.399874 0.47898
429 1 0.903169 0.400211 0.384665
430 1 0.985935 0.484001 0.384075
431 1 0.989208 0.39843 0.47335
433 1 0.567306 0.0695385 0.561259
434 1 0.655846 0.148734 0.561481
435 1 0.655016 0.0652951 0.647276
436 1 0.569293 0.152611 0.646819
437 1 0.739781 0.0611737 0.560817
440 1 0.746018 0.139082 0.651457
445 1 0.570805 0.237554 0.564608
447 1 0.66124 0.224306 0.654256
449 1 0.74138 0.228801 0.564375
469 1 0.563795 0.0763819 0.732972
470 1 0.668539 0.130852 0.741765
475 1 0.582639 0.217506 0.742078
471 1 0.752267 0.0477486 0.740043
477 1 0.750906 0.217244 0.740186
438 1 0.825493 0.143302 0.560815
439 1 0.828338 0.0549422 0.647833
441 1 0.856091 0.0294772 0.535145
442 1 0.940266 0.112947 0.534012
443 1 0.940894 0.0265321 0.618083
444 1 0.913265 0.139274 0.647448
451 1 0.82968 0.22306 0.651207
453 1 0.909679 0.227178 0.560839
455 1 0.99804 0.223724 0.647664
472 1 0.835739 0.132722 0.73825
473 1 0.91727 0.0509363 0.732222
479 1 0.920376 0.217123 0.737675
446 1 0.655375 0.316641 0.570442
448 1 0.574554 0.314441 0.659515
452 1 0.744052 0.308706 0.654825
457 1 0.532499 0.353933 0.552645
458 1 0.616751 0.436167 0.553728
459 1 0.654856 0.398712 0.661262
460 1 0.531503 0.437189 0.642535
461 1 0.737143 0.399436 0.571329
464 1 0.737215 0.481315 0.66123
476 1 0.66391 0.304807 0.741711
481 1 0.571297 0.398913 0.74662
482 1 0.653625 0.482036 0.747724
483 1 0.747416 0.38899 0.741786
450 1 0.824541 0.31218 0.564829
454 1 0.993627 0.311241 0.560873
456 1 0.913717 0.307037 0.651023
462 1 0.819515 0.481947 0.570363
463 1 0.827572 0.392433 0.654599
465 1 0.907757 0.395648 0.564331
466 1 0.98981 0.480225 0.563011
467 1 0.997126 0.391343 0.650563
468 1 0.910568 0.476445 0.653399
478 1 0.835125 0.301697 0.739749
484 1 0.830924 0.472996 0.741167
485 1 0.919147 0.386217 0.739393
721 2 0.550158 0.00908353 0.827691
722 2 0.598023 0.118616 0.835957
723 2 0.609659 0.0269843 0.924651
724 2 0.526197 0.111649 0.9254
725 2 0.682658 0.0330384 0.835081
728 2 0.686287 0.11689 0.919702
733 2 0.515467 0.203067 0.837195
735 2 0.603182 0.20101 0.922515
737 2 0.675719 0.208962 0.831313
726 2 0.761773 0.122792 0.830565
727 2 0.772263 0.0318276 0.916556
729 2 0.851216 0.0341197 0.828194
730 2 0.934406 0.120383 0.826522
731 2 0.945782 0.0325138 0.907815
732 2 0.853966 0.117161 0.912877
739 2 0.76778 0.202564 0.917144
741 2 0.845493 0.208234 0.829024
743 2 0.937444 0.201747 0.912046
334 1 0.944517 0.114173 0.999199
734 2 0.592314 0.29327 0.833724
736 2 0.521403 0.282513 0.926952
740 2 0.684784 0.285789 0.921319
745 2 0.510925 0.373259 0.843923
746 2 0.595997 0.456273 0.847121
747 2 0.603591 0.366205 0.928359
748 2 0.524865 0.446835 0.937562
749 2 0.676279 0.376899 0.834817
752 2 0.687192 0.4497 0.929177
756 2 0.852112 0.453088 0.920984
755 2 0.935536 0.371006 0.916687
754 2 0.928122 0.462258 0.830228
738 2 0.759628 0.293565 0.830847
742 2 0.929506 0.293298 0.828666
744 2 0.851442 0.286764 0.916562
750 2 0.759622 0.460841 0.834639
751 2 0.768349 0.369416 0.921291
753 2 0.843499 0.378187 0.830466
487 1 0.527811 0.527811 0.0290486
488 1 0.611769 0.611769 0.0286974
489 1 0.611724 0.527942 0.114304
490 1 0.527943 0.611724 0.114304
491 1 0.693156 0.529348 0.0240487
494 1 0.695803 0.612156 0.112907
499 1 0.529347 0.693156 0.0240486
501 1 0.612157 0.695803 0.112907
503 1 0.696107 0.696105 0.0260722
523 1 0.527938 0.527937 0.201908
524 1 0.61181 0.61181 0.201812
527 1 0.695682 0.527324 0.20029
535 1 0.527324 0.695682 0.20029
539 1 0.695831 0.69583 0.199218
492 1 0.77705 0.613416 0.0220536
493 1 0.777553 0.52845 0.108144
495 1 0.857398 0.530671 0.0155611
496 1 0.942185 0.612564 0.0145558
497 1 0.942448 0.528553 0.101188
498 1 0.861172 0.612527 0.105712
505 1 0.780149 0.696817 0.109009
507 1 0.861946 0.697421 0.0173495
509 1 0.945521 0.696064 0.101425
528 1 0.7793 0.611361 0.198057
531 1 0.861481 0.527332 0.193657
532 1 0.944926 0.611261 0.191063
543 1 0.862974 0.695424 0.194233
500 1 0.613418 0.77705 0.0220539
502 1 0.52845 0.777552 0.108143
506 1 0.69682 0.780148 0.109009
511 1 0.530672 0.857397 0.0155604
512 1 0.612567 0.942182 0.0145544
513 1 0.612529 0.86117 0.105711
514 1 0.528554 0.942445 0.101189
515 1 0.697425 0.861945 0.0173479
518 1 0.696066 0.945518 0.101425
536 1 0.611362 0.779299 0.198056
547 1 0.527332 0.86148 0.193657
548 1 0.611261 0.944924 0.191063
551 1 0.695425 0.862973 0.194233
504 1 0.781287 0.781284 0.0196744
508 1 0.947255 0.779936 0.0100654
510 1 0.864399 0.7809 0.103208
516 1 0.779938 0.947252 0.0100666
517 1 0.780902 0.864397 0.103208
519 1 0.865276 0.865272 0.0108983
520 1 0.94776 0.947757 0.00175361
521 1 0.947732 0.863996 0.0964524
522 1 0.863998 0.94773 0.0964523
540 1 0.779825 0.779824 0.195096
544 1 0.946415 0.779065 0.189583
552 1 0.779066 0.946413 0.189583
555 1 0.863369 0.863367 0.18995
556 1 0.946345 0.946344 0.18481
525 1 0.612051 0.527043 0.290529
526 1 0.527044 0.612051 0.290529
530 1 0.695441 0.610507 0.289206
537 1 0.610507 0.695441 0.289206
559 1 0.527681 0.527682 0.379589
560 1 0.610676 0.610676 0.379648
561 1 0.612446 0.524885 0.468736
562 1 0.524885 0.612446 0.468735
563 1 0.696937 0.524444 0.378343
566 1 0.695369 0.607845 0.467346
571 1 0.524444 0.696938 0.378342
573 1 0.607844 0.69537 0.467345
575 1 0.693625 0.693626 0.376896
529 1 0.779807 0.52566 0.286908
533 1 0.946291 0.526066 0.27907
534 1 0.863108 0.609309 0.284113
541 1 0.778856 0.694017 0.285901
545 1 0.946363 0.693095 0.280542
564 1 0.780113 0.607522 0.37583
565 1 0.784355 0.520204 0.462733
567 1 0.867554 0.521162 0.371459
568 1 0.950756 0.604818 0.368582
569 1 0.983918 0.567139 0.475545
570 1 0.867408 0.603748 0.459471
577 1 0.778011 0.690424 0.462783
579 1 0.863221 0.690724 0.371624
581 1 0.949951 0.687612 0.454568
538 1 0.52566 0.779807 0.286907
542 1 0.694017 0.778856 0.285901
549 1 0.609309 0.863108 0.284112
550 1 0.526066 0.946289 0.279069
554 1 0.693095 0.946362 0.280542
572 1 0.607521 0.780113 0.37583
574 1 0.520203 0.784356 0.462732
578 1 0.690423 0.778012 0.462783
583 1 0.521161 0.867554 0.371458
584 1 0.604816 0.950756 0.368582
585 1 0.603746 0.867409 0.459471
586 1 0.567137 0.983919 0.475545
587 1 0.690722 0.863221 0.371624
590 1 0.68761 0.949953 0.454568
546 1 0.862286 0.777625 0.281691
553 1 0.777626 0.862285 0.281691
557 1 0.945568 0.861186 0.277371
558 1 0.861186 0.945567 0.277371
576 1 0.776678 0.776679 0.372372
580 1 0.946399 0.774536 0.367312
582 1 0.860791 0.773525 0.456701
588 1 0.774536 0.946399 0.367312
589 1 0.773524 0.860792 0.456701
591 1 0.860148 0.860148 0.367786
592 1 0.943818 0.943818 0.364006
593 1 0.944286 0.857665 0.451964
594 1 0.857664 0.944286 0.451964
595 1 0.526658 0.526659 0.557973
596 1 0.609647 0.609648 0.557703
597 1 0.615426 0.52007 0.642377
598 1 0.520069 0.615428 0.642377
599 1 0.700403 0.519658 0.553287
602 1 0.698898 0.60342 0.641034
607 1 0.519657 0.700404 0.553286
609 1 0.603419 0.698899 0.641034
611 1 0.692387 0.692387 0.55494
631 1 0.525396 0.525399 0.725601
632 1 0.608794 0.608795 0.724216
633 1 0.735928 0.564856 0.746747
637 1 0.564855 0.735928 0.746748
639 1 0.691575 0.691577 0.722329
600 1 0.78346 0.603322 0.551107
601 1 0.819436 0.563902 0.65923
603 1 0.900962 0.565589 0.567484
604 1 0.98071 0.652055 0.56352
605 1 0.989862 0.563719 0.650247
606 1 0.89839 0.649734 0.653952
613 1 0.78109 0.686985 0.637619
615 1 0.865225 0.687144 0.545217
617 1 0.975823 0.739332 0.648784
634 1 0.818431 0.647046 0.744064
635 1 0.913253 0.558029 0.739002
636 1 0.986746 0.650991 0.733352
641 1 0.892525 0.737149 0.736117
608 1 0.60332 0.783461 0.551105
610 1 0.563902 0.819436 0.659229
614 1 0.686981 0.781092 0.637616
619 1 0.565587 0.900965 0.567485
620 1 0.652051 0.980713 0.563519
621 1 0.64973 0.898394 0.653953
622 1 0.563714 0.989868 0.650249
623 1 0.68714 0.865228 0.545216
626 1 0.739326 0.975829 0.648781
638 1 0.647047 0.818432 0.744064
643 1 0.558029 0.913252 0.738999
644 1 0.650981 0.986758 0.733351
645 1 0.737142 0.892536 0.736118
612 1 0.774452 0.774455 0.547379
616 1 0.946893 0.771541 0.538476
618 1 0.861067 0.771463 0.627847
624 1 0.771538 0.946896 0.538475
625 1 0.771458 0.861072 0.627847
627 1 0.857633 0.857635 0.53927
628 1 0.941906 0.941906 0.535183
629 1 0.942478 0.855987 0.620816
630 1 0.855985 0.94248 0.620813
640 1 0.773391 0.773401 0.717949
642 1 0.965847 0.831502 0.733322
646 1 0.831493 0.965859 0.733311
647 1 0.85477 0.854778 0.708927
648 1 0.940102 0.940106 0.702084
758 2 0.567454 0.56746 0.82811
759 2 0.608033 0.53028 0.938208
760 2 0.530278 0.608033 0.938208
761 2 0.679437 0.539938 0.847393
764 2 0.69167 0.613946 0.936984
769 2 0.539934 0.67944 0.847394
771 2 0.613946 0.69167 0.936983
773 2 0.650993 0.650995 0.826734
774 2 0.733948 0.733946 0.824159
762 2 0.763183 0.622831 0.845732
763 2 0.770892 0.533222 0.928664
765 2 0.84383 0.543934 0.833946
766 2 0.92623 0.629108 0.831297
767 2 0.93541 0.536725 0.920655
768 2 0.85453 0.616863 0.926775
775 2 0.775901 0.698083 0.933756
777 2 0.846528 0.706308 0.841547
779 2 0.943282 0.694746 0.924125
770 2 0.622833 0.763184 0.845732
772 2 0.533223 0.770893 0.928664
776 2 0.698086 0.775899 0.933756
781 2 0.543936 0.84383 0.833944
782 2 0.62912 0.92622 0.831288
783 2 0.616866 0.854528 0.926773
784 2 0.536728 0.935407 0.920652
785 2 0.706322 0.846522 0.841544
788 2 0.694751 0.943278 0.924122
792 2 0.862504 0.948009 0.913415
778 2 0.945973 0.77126 0.833876
780 2 0.862954 0.781916 0.924884
786 2 0.77127 0.945969 0.833878
787 2 0.781925 0.86295 0.924883
789 2 0.816266 0.816249 0.818638
790 2 0.893391 0.893431 0.814038
791 2 0.948 0.862506 0.913401
649 2 0.970501 0.970487 0.811563
ITEM: TIMESTEP
5000
ITEM: NUMBER OF ATOMS
792
ITEM: BOX BOUNDS pp pp pp
-5.9872038155342366e-01 2.0598720381553335e+01
-5.9872038155342366e-01 2.0598720381553335e+01
-5.9872038155342366e-01 2.0598720381553335e+01
ITEM: ATOMS id type xs ys zs
3 1 0.130626 0.0411415 0.101633
4 1 0.0359046 0.114243 0.0944724
8 1 0.227948 0.119785 0.10137
15 1 0.121958 0.189875 0.0984915
37 1 0.0441899 0.0372386 0.176564
38 1 0.123565 0.116359 0.193358
41 1 0.226732 0.039041 0.190503
49 1 0.031705 0.189879 0.187362
53 1 0.210485 0.199282 0.188924
1 1 0.054519 0.035795 0.0198826
5 1 0.240089 0.0412224 0.0108462
17 1 0.225761 0.198609 0.0204307
2 1 0.142522 0.116979 0.011078
13 1 0.0446837 0.190666 0.00956306
7 1 0.319976 0.0310356 0.106161
9 1 0.357557 0.00268975 -0.00289955
11 1 0.431195 0.0111644 0.0845802
12 1 0.39879 0.121278 0.102231
19 1 0.310658 0.20036 0.106007
21 1 0.406627 0.206949 0.0229436
23 1 0.483298 0.206481 0.113157
42 1 0.308164 0.117949 0.188023
45 1 0.404883 0.0451079 0.195166
46 1 0.485434 0.125259 0.195893
57 1 0.392112 0.205799 0.202029
6 1 0.325041 0.12561 0.00397267
16 1 0.0359268 0.270365 0.105785
20 1 0.214802 0.279071 0.107216
25 1 0.0265591 0.342669 0.0103419
26 1 0.111303 0.424535 0.0122138
27 1 0.117739 0.351354 0.0951467
28 1 0.0180675 0.425962 0.0902317
29 1 0.209787 0.342854 0.0155327
32 1 0.196841 0.439166 0.103209
50 1 0.116598 0.272325 0.186078
61 1 0.0232314 0.3509 0.184032
62 1 0.10231 0.436217 0.178138
65 1 0.195016 0.355084 0.191563
14 1 0.130458 0.267827 0.0152395
18 1 0.309006 0.278515 0.0264877
22 1 0.486638 0.284347 0.0150793
24 1 0.400768 0.287695 0.10734
30 1 0.290094 0.430756 0.0199743
31 1 0.298543 0.355964 0.106997
33 1 0.395052 0.363586 0.0247996
34 1 0.473333 0.448963 0.0275159
35 1 0.478977 0.366531 0.104949
36 1 0.379602 0.441197 0.107857
54 1 0.295138 0.276256 0.192421
58 1 0.475153 0.294044 0.195222
66 1 0.282832 0.43722 0.184425
69 1 0.380875 0.363197 0.20012
70 1 0.471462 0.441467 0.196422
39 1 0.123185 0.0407575 0.282274
40 1 0.0389148 0.116355 0.283907
44 1 0.207691 0.12288 0.282747
51 1 0.116798 0.201939 0.273795
73 1 0.0396839 0.0360058 0.36747
74 1 0.119406 0.120831 0.367859
75 1 0.120116 0.0517525 0.459252
76 1 0.0264171 0.125035 0.441087
77 1 0.210258 0.0480804 0.375641
80 1 0.212203 0.133878 0.458654
85 1 0.0171797 0.204751 0.366888
87 1 0.105004 0.210476 0.455458
89 1 0.198024 0.200777 0.367122
43 1 0.304823 0.0564685 0.291026
47 1 0.484977 0.0524075 0.296841
48 1 0.391424 0.128938 0.28674
55 1 0.293129 0.192813 0.277296
59 1 0.481409 0.205531 0.282639
78 1 0.297057 0.126483 0.380488
79 1 0.291175 0.0525078 0.469691
81 1 0.3991 0.0560889 0.373263
82 1 0.474235 0.139135 0.37731
83 1 0.477837 0.0474425 0.472547
84 1 0.381178 0.129835 0.461826
91 1 0.281147 0.218009 0.456963
93 1 0.376888 0.215324 0.372693
95 1 0.459431 0.220138 0.461304
52 1 0.0232668 0.272017 0.272879
56 1 0.191967 0.280482 0.284078
63 1 0.103305 0.351845 0.27692
64 1 0.00835849 0.421995 0.272479
68 1 0.186732 0.439649 0.270715
86 1 0.112667 0.281798 0.372426
88 1 0.00139683 0.280396 0.465959
92 1 0.190089 0.289096 0.452986
97 1 0.0110247 0.352566 0.370227
98 1 0.0874873 0.440594 0.36224
99 1 0.0913744 0.36037 0.461282
100 1 0.0574981 0.474689 0.476496
101 1 0.187969 0.368123 0.359881
104 1 0.173874 0.438236 0.45281
71 1 0.472228 0.373994 0.290453
94 1 0.463448 0.292858 0.372683
90 1 0.280965 0.288331 0.368134
72 1 0.367508 0.446319 0.283062
102 1 0.272512 0.44746 0.361027
96 1 0.366247 0.301791 0.455118
108 1 0.355379 0.452675 0.451895
107 1 0.454233 0.383025 0.452059
106 1 0.442032 0.462372 0.370125
105 1 0.370974 0.371002 0.363271
103 1 0.277082 0.365286 0.448195
60 1 0.394174 0.286801 0.284016
67 1 0.281929 0.367518 0.283107