LAMMPS (2 Jun 2022)
OMP_NUM_THREADS environment is not set. Defaulting to 1 thread. (src/comm.cpp:98)
  using 1 OpenMP thread(s) per MPI task
#initial setup
units 			metal
boundary 		p p p
atom_style		atomic
timestep		0.001
neighbor		2.0 bin
neigh_modify	delay 0 every 5 check yes
#modeling box
region 			box block 0 20 0 20 0 20 units box
create_box		2 box
Created orthogonal box = (0 0 0) to (20 20 20)
  2 by 2 by 2 MPI processor grid
#Cu
lattice 		fcc 3.61
Lattice spacing in x,y,z = 3.61 3.61 3.61
region 			Cu block 0 20 0 20 0 16 units box
create_atoms 	1 region Cu
Created 648 atoms
  using lattice units in orthogonal box = (0 0 0) to (20 20 20)
  create_atoms CPU = 0.000 seconds
mass			1 63.54
#Ni
lattice 		fcc 3.53
Lattice spacing in x,y,z = 3.53 3.53 3.53
region 			Ni block 0 20 0 20 16 20 units box
create_atoms 	2 region Ni
Created 144 atoms
  using lattice units in orthogonal box = (0 0 0) to (20 20 20)
  create_atoms CPU = 0.000 seconds
mass			1 58.69
#eam potential coefficent
pair_style 		eam/alloy
pair_coeff * * CuNi.eam.alloy Cu Ni
Reading eam/alloy potential file CuNi.eam.alloy with DATE: 2014-07-11
#minimize energy
thermo 3000
dump 1 all atom 5 1mini.xyz
min_style cg
minimize 1e-15 1e-15 10000 10000
WARNING: Using 'neigh_modify every 1 delay 0 check yes' setting during minimization (src/min.cpp:187)
Neighbor list info ...
  update every 1 steps, delay 0 steps, check yes
  max neighbors/atom: 2000, page size: 100000
  master list distance cutoff = 8.3943324
  ghost atom cutoff = 8.3943324
  binsize = 4.1971662, bins = 5 5 5
  1 neighbor lists, perpetual/occasional/extra = 1 0 0
  (1) pair eam/alloy, perpetual
      attributes: half, newton on
      pair build: half/bin/atomonly/newton
      stencil: half/bin/3d
      bin: standard
Per MPI rank memory allocation (min/avg/max) = 5.514 | 5.515 | 5.515 Mbytes
   Step          Temp          E_pair         E_mol          TotEng         Press     
         0   0              2996.1822      0              2996.1822      1105433      
       271   0             -2772.555       0             -2772.555       299461.72    
Loop time of 1.24909 on 8 procs for 271 steps with 792 atoms

71.3% CPU use with 8 MPI tasks x 1 OpenMP threads

Minimization stats:
  Stopping criterion = linesearch alpha is zero
  Energy initial, next-to-last, final = 
      2996.18222326973  -2772.55504003686  -2772.55504003686
  Force two-norm initial, final = 3343.207 0.02729712
  Force max component initial, final = 594.06902 0.0057750068
  Final line search alpha, max atom move = 1.5258789e-05 8.811961e-08
  Iterations, force evaluations = 271 1453

MPI task timing breakdown:
Section |  min time  |  avg time  |  max time  |%varavg| %total
---------------------------------------------------------------
Pair    | 0.57399    | 0.69914    | 0.80058    |   8.9 | 55.97
Neigh   | 0.000716   | 0.00087375 | 0.001073   |   0.0 |  0.07
Comm    | 0.31813    | 0.41116    | 0.53823    |  11.6 | 32.92
Output  | 0.014042   | 0.016616   | 0.019107   |   1.2 |  1.33
Modify  | 0          | 0          | 0          |   0.0 |  0.00
Other   |            | 0.1213     |            |       |  9.71

Nlocal:             99 ave         108 max          88 min
Histogram: 2 1 0 0 0 0 1 1 0 3
Nghost:        1792.75 ave        1842 max        1735 min
Histogram: 1 2 0 1 0 0 0 0 1 3
Neighs:        11923.1 ave       12893 max       10638 min
Histogram: 3 0 0 0 0 0 0 2 0 3

Total # of neighbors = 95385
Ave neighs/atom = 120.43561
Neighbor list builds = 4
Dangerous builds = 0
undump 1
reset_timestep 0
#initial velocity all create 298 87955 rot yes dist gaussian
#npt temp up
reset_timestep	0
fix				1 all npt temp 298 3000 0.1 iso 0.0 0.0 1
dump 			1 all atom 5000 2npt_hot.xyz
run				100000
Per MPI rank memory allocation (min/avg/max) = 4.39 | 4.39 | 4.391 Mbytes
   Step          Temp          E_pair         E_mol          TotEng         Press          Volume    
         0   0             -2772.555       0             -2772.555       299461.72      8000         
      3000   385.88321     -2857.0585      0             -2817.6039     -766.76744      9547.0436    
      6000   435.22448     -2852.8658      0             -2808.3664      1450.2759      9548.4885    
      9000   546.68827     -2841.6847      0             -2785.7886     -1506.5232      9629.5975    
     12000   610.43467     -2836.1062      0             -2773.6924      4548.6352      9612.7558    
     15000   724.30832     -2824.6034      0             -2750.5466     -420.95872      9707.1949    
     18000   765.50395     -2813.1627      0             -2734.8939     -1286.4454      9761.152     
     21000   854.75558     -2805.1704      0             -2717.7761      3280.9541      9772.0272    
     24000   899.85663     -2794.6213      0             -2702.6157     -3162.8201      9867.0078    
     27000   1030.4511     -2787.4522      0             -2682.094       6808.1162      9839.2011    
     30000   1103.378      -2768.3811      0             -2655.5664     -5558.0835      10023.662    
     33000   1225.0354     -2762.902       0             -2637.6485     -232.80865      10014.861    
     36000   1291.9107     -2748.7505      0             -2616.6594     -4998.3591      10121.49     
     39000   1366.6556     -2744.2966      0             -2604.5632     -880.94418      10121.404    
     42000   1467.0594     -2723.3114      0             -2573.3123      2872.7956      10194.391    
     45000   1506.0527     -2713.6472      0             -2559.6612      1120.6626      10248.925    
     48000   1585.0554     -2657.3436      0             -2495.28        5833.3165      10483.631    
     51000   1682.253      -2615.8284      0             -2443.8268     -6161.1814      10806.008    
     54000   1733.458      -2600.9037      0             -2423.6667      2865.7284      10812.023    
     57000   1809.7072     -2598.9186      0             -2413.8855     -3089.1002      10846.593    
     60000   1917.6829     -2579.391       0             -2383.318       338.30032      10911.525    
     63000   2023.2903     -2558.8773      0             -2352.0065      6179.826       10983.394    
     66000   2012.0819     -2555.4751      0             -2349.7503      5953.9332      10989.889    
     69000   2185.9747     -2534.7021      0             -2311.1976     -6821.1851      11234.123    
     72000   2232.6395     -2537.3869      0             -2309.1112     -4899.2896      11184.168    
     75000   2297.5078     -2525.4714      0             -2290.5632      10625.379      11119.343    
     78000   2339.4148     -2501.6746      0             -2262.4816      6851.3317      11275.128    
     81000   2566.681      -2497.1108      0             -2234.6811      3245.3719      11362.193    
     84000   2560.9518     -2477.6518      0             -2215.8078      2538.2472      11465.754    
     87000   2533.7089     -2476.2083      0             -2217.1498     -5171.7409      11555.036    
     90000   2776.7912     -2471.3384      0             -2187.4261      7102.4213      11470.09     
     93000   2797.1536     -2455.6124      0             -2169.6181     -18907.493      11835.66     
     96000   2867.675      -2465.0664      0             -2171.8617      4807.7748      11545.617    
     99000   2868.6141     -2440.8564      0             -2147.5556      105.71653      11698.967    
    100000   3044.9294     -2431.9966      0             -2120.6685     -11358.219      11898.208    
Loop time of 81.8028 on 8 procs for 100000 steps with 792 atoms

Performance: 105.620 ns/day, 0.227 hours/ns, 1222.452 timesteps/s
57.1% CPU use with 8 MPI tasks x 1 OpenMP threads

MPI task timing breakdown:
Section |  min time  |  avg time  |  max time  |%varavg| %total
---------------------------------------------------------------
Pair    | 40.14      | 40.643     | 41.538     |   7.3 | 49.68
Neigh   | 0.3244     | 0.3345     | 0.34644    |   1.3 |  0.41
Comm    | 21.753     | 22.836     | 23.553     |  12.7 | 27.92
Output  | 0.01278    | 0.01426    | 0.01535    |   0.6 |  0.02
Modify  | 16.55      | 17.068     | 17.578     |   7.3 | 20.86
Other   |            | 0.9073     |            |       |  1.11

Nlocal:             99 ave         103 max          93 min
Histogram: 1 0 0 0 1 2 0 1 1 2
Nghost:           1398 ave        1406 max        1389 min
Histogram: 2 0 0 0 1 1 1 1 1 1
Neighs:        8161.38 ave        8722 max        7232 min
Histogram: 1 0 0 0 2 1 0 1 1 2

Total # of neighbors = 65291
Ave neighs/atom = 82.438131
Neighbor list builds = 1487
Dangerous builds = 0
unfix			1
undump			1
reset_timestep  0
#nvt mix up
dump			1 all atom 5000 3nvt_equ.xyz
run				1
WARNING: No fixes with time integration, atoms won't move (src/verlet.cpp:60)
Per MPI rank memory allocation (min/avg/max) = 4.39 | 4.391 | 4.391 Mbytes
   Step          Temp          E_pair         E_mol          TotEng         Press     
         0   3044.9294     -2431.9966      0             -2120.6685     -11358.219    
         1   3044.9294     -2431.9966      0             -2120.6685     -11358.219    
Loop time of 0.000353875 on 8 procs for 1 steps with 792 atoms

Performance: 244.154 ns/day, 0.098 hours/ns, 2825.857 timesteps/s
0.0% CPU use with 8 MPI tasks x 1 OpenMP threads

MPI task timing breakdown:
Section |  min time  |  avg time  |  max time  |%varavg| %total
---------------------------------------------------------------
Pair    | 0.000199   | 0.00024688 | 0.000305   |   0.0 | 69.76
Neigh   | 0          | 0          | 0          |   0.0 |  0.00
Comm    | 2.6e-05    | 8.75e-05   | 0.000139   |   0.0 | 24.73
Output  | 1.3e-05    | 1.3625e-05 | 1.5e-05    |   0.0 |  3.85
Modify  | 0          | 3.75e-07   | 1e-06      |   0.0 |  0.11
Other   |            | 5.5e-06    |            |       |  1.55

Nlocal:             99 ave         102 max          95 min
Histogram: 1 0 1 0 2 0 0 1 2 1
Nghost:        1402.88 ave        1416 max        1395 min
Histogram: 1 3 1 0 0 1 1 0 0 1
Neighs:        8104.75 ave        8836 max        7381 min
Histogram: 1 1 0 2 1 0 0 0 2 1

Total # of neighbors = 64838
Ave neighs/atom = 81.866162
Neighbor list builds = 0
Dangerous builds = 0
fix 			1 all nvt temp	3000 3000 0.1
unfix			1
undump			1
reset_timestep	0
#nvt
fix 			1 all nvt temp 3000 3000 0.1
thermo 1000
thermo_style custom step temp press vol pe ke etotal enthalpy
thermo_modify flush yes
compute 1 all orientorder/atom degrees 3 4 6 8
dump 1 all custom 10000 dump.traj id type x y z c_1[1] c_1[2] c_1[3]
run 5000000
Neighbor list info ...
  update every 5 steps, delay 0 steps, check yes
  max neighbors/atom: 2000, page size: 100000
  master list distance cutoff = 8.3943324
  ghost atom cutoff = 8.3943324
  binsize = 4.1971662, bins = 6 6 6
  2 neighbor lists, perpetual/occasional/extra = 1 1 0
  (1) pair eam/alloy, perpetual
      attributes: half, newton on
      pair build: half/bin/atomonly/newton
      stencil: half/bin/3d
      bin: standard
  (2) compute orientorder/atom, occasional
      attributes: full, newton on
      pair build: full/bin/atomonly
      stencil: full/bin/3d
      bin: standard
Per MPI rank memory allocation (min/avg/max) = 5.656 | 5.657 | 5.657 Mbytes
   Step          Temp          Press          Volume         PotEng         KinEng         TotEng        Enthalpy   
         0   3044.9294     -11358.219      11898.208     -2431.9966      311.32812     -2120.6685     -2205.0178    
      1000   3160.2147     -4751.4458      11898.208     -2419.7898      323.11544     -2096.6743     -2131.9599    
      2000   3164.744      -8674.5349      11898.208     -2425.3641      323.57854     -2101.7856     -2166.2051    
      3000   2854.9608     -5716.2352      11898.208     -2415.0134      291.90483     -2123.1086     -2165.5589    
      4000   2978.9803     -12486.574      11898.208     -2428.0746      304.58517     -2123.4894     -2216.2182    
      5000   3029.4127     -11088.052      11898.208     -2426.7108      309.74162     -2116.9692     -2199.3122    
      6000   3053.9042     -18060.546      11898.208     -2447.2031      312.24575     -2134.9574     -2269.08      
      7000   2933.7344     -15441.159      11898.208     -2436.741       299.95901     -2136.782      -2251.4524    
      8000   3042.6422     -3747.7908      11898.208     -2416.1198      311.09427     -2105.0256     -2132.8577    
      9000   3004.7091     -7154.4011      11898.208     -2421.6325      307.21581     -2114.4167     -2167.5472    
     10000   3043.0354     -14924.916      11898.208     -2436.1637      311.13447     -2125.0292     -2235.8658    
     11000   2904.8166     -9788.5152      11898.208     -2423.2455      297.00232     -2126.2432     -2198.9354    
     12000   3004.4043     -12623.948      11898.208     -2430.7192      307.18464     -2123.5345     -2217.2835    
     13000   2852.975      -3415.5905      11898.208     -2413.4608      291.70179     -2121.7591     -2147.1242    
     14000   3166.3291     -6160.5756      11898.208     -2427.6987      323.74061     -2103.9581     -2149.7083    
     15000   3031.6015     -8631.2157      11898.208     -2421.4424      309.96541     -2111.4769     -2175.5748    
     16000   2885.9213     -9211.0784      11898.208     -2426.4811      295.07037     -2131.4107     -2199.8148    
     17000   3039.2731     -4955.6752      11898.208     -2414.4025      310.74979     -2103.6527     -2140.4549    
     18000   2948.1204     -13155.904      11898.208     -2428.5357      301.4299      -2127.1058     -2224.8052    
     19000   3017.6723     -7569.8149      11898.208     -2418.1165      308.54122     -2109.5753     -2165.7908    
     20000   2969.7979     -7469.1647      11898.208     -2422.9871      303.64631     -2119.3408     -2174.8089    
     21000   3037.9594     -9141.8003      11898.208     -2429.6664      310.61547     -2119.0509     -2186.9405    
     22000   3098.5686     -7312.5487      11898.208     -2421.0751      316.81245     -2104.2627     -2158.5677    
     23000   2912.0153     -11958.374      11898.208     -2430.2487      297.73835     -2132.5104     -2221.3166    
     24000   3014.4684     -3452.1688      11898.208     -2414.7352      308.21364     -2106.5215     -2132.1583    
     25000   3115.516      -11360.959      11898.208     -2433.8248      318.54523     -2115.2795     -2199.6492    
     26000   3054.3265     -6064.1978      11898.208     -2422.4775      312.28893     -2110.1885     -2155.223     
     27000   3215.3823     -9191.0636      11898.208     -2423.3371      328.75604     -2094.5811     -2162.8365    
     28000   2964.3363     -4017.6898      11898.208     -2413.2111      303.08789     -2110.1232     -2139.9597    
     29000   2906.9159     -12022.267      11898.208     -2431.5269      297.21696     -2134.3099     -2223.5906    
     30000   2945.3622     -4227.4946      11898.208     -2415.0792      301.1479      -2113.9313     -2145.3259    
     31000   2977.7103     -9780.8006      11898.208     -2424.8662      304.45532     -2120.4109     -2193.0458    
     32000   2951.5813     -8196.0771      11898.208     -2421.3775      301.78376     -2119.5938     -2180.4601    
     33000   3047.7049     -9873.6599      11898.208     -2425.8581      311.6119      -2114.2462     -2187.5708    
     34000   3005.3959     -3231.9367      11898.208     -2416.1266      307.28603     -2108.8406     -2132.8418    
     35000   3022.9087     -13206.568      11898.208     -2430.9538      309.07662     -2121.8772     -2219.9529    
     36000   3077.0578     -1711.1049      11898.208     -2414.5778      314.61308     -2099.9647     -2112.6718    
     37000   2899.7314     -1311.1427      11898.208     -2406.2481      296.48239     -2109.7657     -2119.5026    
     38000   3118.5845     -9826.238       11898.208     -2424.7424      318.85897     -2105.8835     -2178.8558    
     39000   2868.4857     -3913.1407      11898.208     -2416.4034      293.28767     -2123.1157     -2152.1758    
     40000   2918.9151     -5896.4346      11898.208     -2420.5161      298.44382     -2122.0723     -2165.8609    
     41000   3091.6382     -7094.023       11898.208     -2422.2932      316.10386     -2106.1893     -2158.8715    
     42000   3014.6834     -13038.727      11898.208     -2429.3512      308.23562     -2121.1155     -2217.9447    
     43000   2952.145      -5268.7437      11898.208     -2420.1616      301.8414      -2118.3202     -2157.4474    
     44000   2918.0171     -5100.7801      11898.208     -2415.843       298.352       -2117.491      -2155.3708    
     45000   3023.19       -2330.3209      11898.208     -2415.5321      309.10538     -2106.4267     -2123.7323    
     46000   3018.5999     -7929.6887      11898.208     -2423.1902      308.63607     -2114.5541     -2173.4422    
     47000   2948.4425     -12341.27       11898.208     -2434.6538      301.46284     -2133.191      -2224.8407    
     48000   3038.5258     -5398.0183      11898.208     -2419.7103      310.67339     -2109.0369     -2149.1241    
     49000   3190.0617     -3993.0802      11898.208     -2418.4532      326.16714     -2092.2861     -2121.9398    
     50000   2926.9648     -9262.183       11898.208     -2425.0824      299.26685     -2125.8155     -2194.5991    
     51000   2971.799      -10225.381      11898.208     -2423.4743      303.85092     -2119.6234     -2195.5599    
     52000   2879.2052     -9531.7742      11898.208     -2418.9146      294.38369     -2124.5309     -2195.3165    
     53000   2924.6823     -13034.245      11898.208     -2427.2833      299.03349     -2128.2498     -2225.0458    
     54000   2885.5428     -10625.556      11898.208     -2428.6968      295.03167     -2133.6652     -2212.5735    
     55000   2941.724      -5428.0354      11898.208     -2417.4825      300.77591     -2116.7066     -2157.0167    
     56000   3045.3536     -9196.3952      11898.208     -2425.9231      311.3715      -2114.5516     -2182.8466    
     57000   3137.3927     -7293.4438      11898.208     -2424.4706      320.78201     -2103.6886     -2157.8518    
     58000   2961.475      -8106.6823      11898.208     -2419.8886      302.79535     -2117.0932     -2177.2957    
     59000   2935.0138     -4932.8114      11898.208     -2416.6632      300.08982     -2116.5734     -2153.2058    
     60000   3002.8133     -4081.3628      11898.208     -2418.9726      307.02197     -2111.9506     -2142.26      
     61000   3097.9651     -10342.018      11898.208     -2426.9661      316.75075     -2110.2154     -2187.0181    
     62000   3006.118      -6972.6028      11898.208     -2423.9464      307.35985     -2116.5865     -2168.367     
     63000   2898.5823     -13335.647      11898.208     -2430.1516      296.36489     -2133.7867     -2232.8209    
     64000   2952.7587     -14736.592      11898.208     -2434.9177      301.90415     -2133.0135     -2242.4515    
     65000   3073.6467     -5283.207       11898.208     -2418.5692      314.26431     -2104.3048     -2143.5394    
     66000   2978.4679     -8595.5231      11898.208     -2422.6104      304.53278     -2118.0777     -2181.9104    
     67000   3071.1236     -8077.4732      11898.208     -2419.2384      314.00634     -2105.2321     -2165.2176    
     68000   3023.9613     -8228.6426      11898.208     -2421.9563      309.18424     -2112.772      -2173.8802    
     69000   3005.7247     -4270.9801      11898.208     -2413.0291      307.31964     -2105.7095     -2137.427     
     70000   2945.3044     -5330.6681      11898.208     -2417.5383      301.14198     -2116.3963     -2155.9833    
     71000   2920.52       -10252.636      11898.208     -2428.7981      298.60791     -2130.1902     -2206.3291    
     72000   2894.5831     -14918.051      11898.208     -2428.573       295.956       -2132.617      -2243.4026    
     73000   2937.2896     -6394.1945      11898.208     -2418.9492      300.32252     -2118.6267     -2166.1118    
     74000   3102.0546     -8476.1481      11898.208     -2428.0776      317.16888     -2110.9087     -2173.8549    
     75000   3204.2139     -11753.18       11898.208     -2432.7267      327.61413     -2105.1125     -2192.3949    
     76000   3012.0601     -11207.141      11898.208     -2428.2433      307.9674      -2120.2759     -2203.5032    
     77000   2838.5811     -3532.8422      11898.208     -2411.3334      290.23009     -2121.1033     -2147.3392    
     78000   3093.7724     -1858.1916      11898.208     -2415.1107      316.32206     -2098.7886     -2112.5881    
     79000   2990.474      -5632.6591      11898.208     -2416.0788      305.76034     -2110.3184     -2152.1481    
     80000   3010.8627     -8034.892       11898.208     -2422.4764      307.84498     -2114.6315     -2174.3008    
     81000   3038.2161     -2555.045       11898.208     -2414.8298      310.64173     -2104.1881     -2123.1625    
     82000   2955.3278     -15960.437      11898.208     -2436.9236      302.16682     -2134.7568     -2253.2834    
     83000   2907.0451     -10568.78       11898.208     -2425.5819      297.23017     -2128.3518     -2206.8385    
     84000   3141.4984     -5437.0894      11898.208     -2420.1965      321.2018      -2098.9947     -2139.372     
     85000   2912.1109     -6771.4818      11898.208     -2420.6253      297.74813     -2122.8772     -2173.1641    
     86000   2988.8428     -12439.786      11898.208     -2431.5837      305.59356     -2125.9902     -2218.3715    
     87000   2988.3712     -8264.148       11898.208     -2425.0348      305.54534     -2119.4895     -2180.8613    
     88000   3073.5235     -7394.2107      11898.208     -2424.1377      314.25172     -2109.886      -2164.7974    
     89000   3050.5628     -12667.473      11898.208     -2433.2771      311.90411     -2121.373      -2215.4452    
     90000   2986.2187     -4528.191       11898.208     -2419.2419      305.32526     -2113.9167     -2147.5443    
     91000   3021.3212     -11555.875      11898.208     -2429.9763      308.9143      -2121.062      -2206.8791    
     92000   3095.5195     -16323.169      11898.208     -2442.6959      316.5007      -2126.1952     -2247.4156    
     93000   2937.7986     -12835.218      11898.208     -2430.0931      300.37456     -2129.7185     -2225.0364    
     94000   2955.9582     -10032.635      11898.208     -2425.6224      302.23128     -2123.3911     -2197.8963    
     95000   3045.4457     -7075.4633      11898.208     -2420.1751      311.38091     -2108.7942     -2161.3385    
     96000   2873.6303     -2786.3236      11898.208     -2409.4786      293.81368     -2115.6649     -2136.3569    
     97000   2926.7398     -6045.8015      11898.208     -2420.2242      299.24385     -2120.9803     -2165.8781    
     98000   2963.4188     -5895.1049      11898.208     -2414.8786      302.99409     -2111.8845     -2155.6632    
     99000   2790.7547     -10105.526      11898.208     -2421.743       285.34009     -2136.4029     -2211.4494    
    100000   2913.3437     -4079.8533      11898.208     -2416.5716      297.87417     -2118.6974     -2148.9955    
    101000   2995.3599     -4602.8816      11898.208     -2409.3175      306.2599      -2103.0575     -2137.2398    
    102000   3116.8757     -7694.8351      11898.208     -2426.8358      318.68425     -2108.1516     -2165.2956    
    103000   3009.5845     -9280.083       11898.208     -2420.9537      307.71429     -2113.2394     -2182.1559    
    104000   2997.194      -10625.414      11898.208     -2430.6517      306.44743     -2124.2043     -2203.1115    
    105000   2971.2878     -8865.7091      11898.208     -2424.6107      303.79865     -2120.812      -2186.6513    
    106000   3026.3275     -8283.668       11898.208     -2423.2207      309.42618     -2113.7945     -2175.3113    
    107000   2980.0051     -9316.791       11898.208     -2428.6303      304.68995     -2123.9404     -2193.1294    
    108000   2999.4385     -4600.3004      11898.208     -2417.024       306.67692     -2110.347      -2144.5102    
    109000   3004.0378     -4870.045       11898.208     -2420.3152      307.14717     -2113.168      -2149.3343    
    110000   2964.3357     -7052.2626      11898.208     -2419.9055      303.08784     -2116.8177     -2169.1898    
    111000   2937.7461     -8151.6991      11898.208     -2422.2542      300.36919     -2121.885      -2182.4218    
    112000   2905.0802     -12255.799      11898.208     -2429.841       297.02928     -2132.8118     -2223.8267    
    113000   2888.7509     -9829.4067      11898.208     -2424.2858      295.35968     -2128.9261     -2201.922     
    114000   2858.0736     -9959.3899      11898.208     -2422.6928      292.2231      -2130.4697     -2204.4309    
    115000   2938.8848     -9944.6011      11898.208     -2428.4353      300.48562     -2127.9497     -2201.8011    
    116000   2978.1543     -8255.4564      11898.208     -2425.4967      304.50071     -2120.996      -2182.3033    
    117000   2951.3656     -5609.7256      11898.208     -2419.1093      301.76171     -2117.3476     -2159.007     
    118000   3100.8941     -7647.3077      11898.208     -2422.5072      317.05022     -2105.457      -2162.248     
    119000   3027.1334     -5180.5143      11898.208     -2420.3366      309.50857     -2110.828      -2149.2999    
    120000   2792.4356     -5073.6822      11898.208     -2415.7084      285.51195     -2130.1964     -2167.875     
    121000   2763.1975     -11635.278      11898.208     -2423.8554      282.52251     -2141.3329     -2227.7397    
    122000   3112.8808     -4403.0862      11898.208     -2417.7243      318.2758      -2099.4485     -2132.147     
    123000   2871.0109     -11193.28       11898.208     -2426.5429      293.54586     -2132.997      -2216.1214    
    124000   3017.7568     -8015.9089      11898.208     -2416.5883      308.54986     -2108.0384     -2167.5668    
    125000   2937.3917     -5548.2502      11898.208     -2415.7697      300.33295     -2115.4367     -2156.6396    
    126000   3096.1745     -7198.4403      11898.208     -2421.8855      316.56766     -2105.3178     -2158.7754    
    127000   2951.3387     -8699.3686      11898.208     -2418.5343      301.75896     -2116.7754     -2181.3793    
    128000   3049.4413     -11773.275      11898.208     -2431.0909      311.78944     -2119.3014     -2206.733     
    129000   2894.0681     -9748.2741      11898.208     -2431.0767      295.90334     -2135.1734     -2207.5667    
    130000   2910.3314     -10017.568      11898.208     -2428.9669      297.56617     -2131.4007     -2205.794     
    131000   3020.5598     -937.78277      11898.208     -2410.8384      308.83646     -2102.0019     -2108.9661    
    132000   3034.2717     -7172.2455      11898.208     -2417.1912      310.23843     -2106.9528     -2160.2158    
    133000   3035.3919     -7596.3244      11898.208     -2423.0858      310.35297     -2112.7328     -2169.1453    
    134000   2890.421      -7875.5493      11898.208     -2425.1837      295.53045     -2129.6532     -2188.1393    
    135000   3071.6753     -6258.5952      11898.208     -2425.5658      314.06274     -2111.5031     -2157.9811    
    136000   3162.6678     -6251.4423      11898.208     -2418.8878      323.36626     -2095.5216     -2141.9465    
    137000   3039.923      -7936.761       11898.208     -2419.1034      310.81624     -2108.2872     -2167.2277    
    138000   2909.7643     -8989.6553      11898.208     -2425.1039      297.5082      -2127.5957     -2194.3553    
    139000   2941.81       -11570.575      11898.208     -2428.9245      300.7847      -2128.1398     -2214.0661    
    140000   3076.8145     -5252.4409      11898.208     -2417.0939      314.58821     -2102.5057     -2141.5118    
    141000   3178.8799     -3727.6617      11898.208     -2417.27        325.02386     -2092.2461     -2119.9287    
    142000   3012.6001     -8220.9033      11898.208     -2425.0745      308.02262     -2117.0519     -2178.1026    
    143000   3009.6984     -11135.23       11898.208     -2433.1088      307.72593     -2125.3829     -2208.0762    
    144000   2857.2866     -2223.1522      11898.208     -2408.2733      292.14263     -2116.1307     -2132.6404    
    145000   2951.1515     -7055.6969      11898.208     -2415.9092      301.73982     -2114.1694     -2166.567     
    146000   3027.0828     -2585.135       11898.208     -2412.7683      309.50339     -2103.2649     -2122.4628    
    147000   3082.9834     -7601.9359      11898.208     -2422.8651      315.21894     -2107.6462     -2164.1003    
    148000   2902.136      -8226.3063      11898.208     -2423.5836      296.72824     -2126.8554     -2187.9462    
    149000   3021.3961     -7921.8598      11898.208     -2423.2017      308.92196     -2114.2798     -2173.1097    
    150000   3050.0427     -5314.6298      11898.208     -2419.9507      311.85092     -2108.0998     -2147.5677    
    151000   2916.5687     -14775.042      11898.208     -2432.7376      298.20391     -2134.5337     -2244.2572    
    152000   3011.3189     -2142.7096      11898.208     -2415.1223      307.89162     -2107.2307     -2123.1431    
    153000   2980.3898     -9583.0331      11898.208     -2423.0066      304.72928     -2118.2773     -2189.4436    
    154000   3165.395      -3229.6438      11898.208     -2417.3103      323.6451      -2093.6652     -2117.6495    
    155000   3003.3294     -6295.874       11898.208     -2419.9449      307.07473     -2112.8702     -2159.6251    
    156000   3059.295      -5665.9617      11898.208     -2417.6867      312.79692     -2104.8898     -2146.9668    
    157000   2846.6516     -9002.2218      11898.208     -2418.1881      291.05525     -2127.1329     -2193.9859    
    158000   2905.0131     -5257.2475      11898.208     -2417.614       297.02241     -2120.5916     -2159.6333    
    159000   3103.4263     -10439.623      11898.208     -2430.1077      317.30913     -2112.7986     -2190.3261    
    160000   2865.0505     -12155.874      11898.208     -2426.2921      292.93644     -2133.3556     -2223.6285    
    161000   3199.5207     -5889.0417      11898.208     -2425.5563      327.13428     -2098.422      -2142.1556    
    162000   3016.874      -5989.2658      11898.208     -2419.5531      308.4596      -2111.0935     -2155.5714    
    163000   2990.9019     -1119.6464      11898.208     -2409.5916      305.80409     -2103.7875     -2112.1023    
    164000   3030.3381     -5203.1896      11898.208     -2413.8417      309.83624     -2104.0054     -2142.6458    
    165000   2966.982      -4830.8493      11898.208     -2414.4151      303.35841     -2111.0567     -2146.9319    
    166000   2902.9777     -5019.8264      11898.208     -2416.6166      296.81431     -2119.8023     -2157.0809    
    167000   3114.2189     -6673.8696      11898.208     -2422.4392      318.41261     -2104.0266     -2153.5886    
    168000   2908.7934     -3671.8266      11898.208     -2414.6536      297.40892     -2117.2447     -2144.5127    
    169000   2891.7996     -5802.8621      11898.208     -2418.2296      295.6714      -2122.5582     -2165.6518    
    170000   3079.9115     -7468.793       11898.208     -2424.87        314.90486     -2109.9651     -2165.4305    
    171000   3051.5834     -7992.795       11898.208     -2423.2293      312.00846     -2111.2209     -2170.5776    
    172000   2835.478      -4931.7184      11898.208     -2409.1191      289.91281     -2119.2063     -2155.8306    
    173000   2973.5729     -7201.0043      11898.208     -2419.5361      304.03229     -2115.5038     -2168.9805    
    174000   3053.4675     -8773.1828      11898.208     -2427.421       312.20109     -2115.2199     -2180.372     
    175000   2963.8206     -6294.9838      11898.208     -2418.4163      303.03517     -2115.3811     -2162.1294    
    176000   3043.5783     -8725.2907      11898.208     -2426.2883      311.18998     -2115.0984     -2179.8948    
    177000   2958.7997     -9021.8713      11898.208     -2420.9857      302.52181     -2118.4639     -2185.4628    
    178000   2975.8234     -14506.242      11898.208     -2437.3766      304.26239     -2133.1142     -2240.8416    
    179000   2863.3572     -13473.094      11898.208     -2429.0112      292.76331     -2136.2479     -2236.3029    
    180000   3023.7139     -7354.8322      11898.208     -2417.852       309.15895     -2108.693      -2163.3121    
    181000   3005.6267     -9322.7442      11898.208     -2424.7958      307.30963     -2117.4862     -2186.7195    
    182000   3103.2355     -6772.0845      11898.208     -2423.8443      317.28961     -2106.5547     -2156.8461    
    183000   3115.4492     -4202.5346      11898.208     -2419.4937      318.5384      -2100.9553     -2132.1645    
    184000   3019.7964     -4985.4112      11898.208     -2415.2162      308.75841     -2106.4578     -2143.4809    
    185000   2942.3845     -12975.697      11898.208     -2428.8062      300.84344     -2127.9628     -2224.3239    
    186000   3015.6847     -6773.6991      11898.208     -2421.1965      308.338       -2112.8585     -2163.1618    
    187000   2981.7326     -7489.6977      11898.208     -2419.8212      304.86658     -2114.9546     -2170.5752    
    188000   3104.5155     -2737.5718      11898.208     -2420.246       317.42049     -2102.8255     -2123.1555    
    189000   3085.4219     -2942.9785      11898.208     -2417.7502      315.46826     -2102.2819     -2124.1373    
    190000   3086.7428     -7958.1801      11898.208     -2426.1047      315.60332     -2110.5014     -2169.6011    
    191000   3062.2731     -9878.8701      11898.208     -2428.037       313.10142     -2114.9356     -2188.2988    
    192000   3016.0748     -5633.026       11898.208     -2420.4795      308.37788     -2112.1016     -2153.934     
    193000   3054.8163     -11732.734      11898.208     -2430.6425      312.33901     -2118.3035     -2205.434     
    194000   3140.9025     -3188.4585      11898.208     -2417.6255      321.14087     -2096.4847     -2120.1631    
    195000   3020.0978     -3133.6937      11898.208     -2421.7522      308.78922     -2112.963      -2136.2347    
    196000   3109.4812     -3280.006       11898.208     -2417.0396      317.92821     -2099.1114     -2123.4696    
    197000   3088.493      -13290.166      11898.208     -2437.7691      315.78227     -2121.9868     -2220.6833    
    198000   2942.5701     -7628.9308      11898.208     -2419.8003      300.86242     -2118.9379     -2175.5925    
    199000   3029.4005     -7581.7092      11898.208     -2420.5465      309.74037     -2110.8062     -2167.1101    
    200000   3019.9708     -8025.7899      11898.208     -2424.5092      308.77623     -2115.733      -2175.3347    
    201000   2976.6451     -10604.761      11898.208     -2424.7615      304.3464      -2120.4151     -2199.169     
    202000   2959.0413     -10423.694      11898.208     -2428.3915      302.54651     -2125.845      -2203.2542    
    203000   3092.813      -1357.6309      11898.208     -2408.3271      316.22396     -2092.1031     -2102.1853    
    204000   3106.9581     -8811.0119      11898.208     -2427.5754      317.67023     -2109.9052     -2175.3382    
    205000   3012.9774     -8015.83        11898.208     -2422.8715      308.06119     -2114.8103     -2174.3381    
    206000   2973.1098     -11009.826      11898.208     -2431.8204      303.98494     -2127.8355     -2209.5975    
    207000   2927.2245     -8382.7555      11898.208     -2422.8686      299.29341     -2123.5752     -2185.8279    
    208000   2899.1997     -6471.1299      11898.208     -2411.9933      296.42802     -2115.5653     -2163.6217    
    209000   3139.1943     -6167.9193      11898.208     -2423.2885      320.96622     -2102.3222     -2148.1269    
    210000   2891.1847     -12262.368      11898.208     -2428.0041      295.60853     -2132.3956     -2223.4593    
    211000   2958.6705     -12567.391      11898.208     -2431.4241      302.5086      -2128.9155     -2222.2444    
    212000   2991.3832     -14650.643      11898.208     -2436.5653      305.85331     -2130.712      -2239.5117    
    213000   3005.8974     -6648.3944      11898.208     -2420.866       307.33731     -2113.5287     -2162.9015    
    214000   3054.0764     -5356.1377      11898.208     -2417.2436      312.26335     -2104.9803     -2144.7565    
    215000   3008.4772     -7177.2026      11898.208     -2420.4406      307.60108     -2112.8396     -2166.1394    
    216000   2810.9539     -15677.705      11898.208     -2434.8586      287.40535     -2147.4532     -2263.8802    
    217000   3028.9276     -7803.3217      11898.208     -2425.8202      309.69202     -2116.1281     -2174.0778    
    218000   3021.8213     -4969.4895      11898.208     -2419.2381      308.96543     -2110.2727     -2147.1775    
    219000   3037.1871     -6427.3209      11898.208     -2423.1967      310.53651     -2112.6601     -2160.3912    
    220000   2933.353      -8030.9533      11898.208     -2419.8598      299.92001     -2119.9398     -2179.5799    
    221000   2991.0869     -9453.8622      11898.208     -2426.8812      305.823       -2121.0582     -2191.2652    
    222000   3110.7505     -9795.875       11898.208     -2428.8066      318.05798     -2110.7486     -2183.4955    
    223000   2912.181      -11121.088      11898.208     -2423.5207      297.75529     -2125.7654     -2208.3537    
    224000   2788.4541     -2498.8431      11898.208     -2404.6693      285.10486     -2119.5645     -2138.1216    
    225000   3145.7344     -12204.588      11898.208     -2437.0203      321.6349      -2115.3854     -2206.0201    
    226000   3142.046      -5462.6521      11898.208     -2421.5843      321.25779     -2100.3266     -2140.8937    
    227000   3069.4167     -7958.119       11898.208     -2426.7904      313.83182     -2112.9585     -2172.0577    
    228000   2965.8117     -8152.3132      11898.208     -2425.0517      303.23875     -2121.813      -2182.3543    
    229000   3037.6926     -3001.4159      11898.208     -2408.9822      310.5882      -2098.394      -2120.6833    
    230000   3099.668      -3769.2079      11898.208     -2419.9027      316.92486     -2102.9779     -2130.9691    
    231000   2995.5267     -9570.2519      11898.208     -2428.1402      306.27695     -2121.8633     -2192.9346    
    232000   3060.7727     -10737.392      11898.208     -2431.4024      312.94801     -2118.4544     -2198.1932    
    233000   2944.7624     -4363.0167      11898.208     -2414.0168      301.08657     -2112.9302     -2145.3312    
    234000   3035.1037     -5195.6934      11898.208     -2418.5584      310.32349     -2108.2349     -2146.8195    
    235000   3162.6617     -7024.6108      11898.208     -2426.0584      323.36563     -2102.6928     -2154.8595    
    236000   3077.5697     -11280.862      11898.208     -2424.4722      314.66542     -2109.8068     -2193.5816    
    237000   3149.9324     -2929.744       11898.208     -2418.2854      322.06413     -2096.2212     -2117.9783    
    238000   3120.6708     -2821.6062      11898.208     -2411.4427      319.07228     -2092.3704     -2113.3244    
    239000   2944.6416     -5974.5127      11898.208     -2418.6434      301.07422     -2117.5692     -2161.9376    
    240000   2955.8078     -11721.351      11898.208     -2429.4181      302.2159      -2127.2022     -2214.2482    
    241000   3035.1829     -3804.4626      11898.208     -2417.6378      310.33159     -2107.3062     -2135.5592    
    242000   3086.46       -10396.106      11898.208     -2425.2962      315.57441     -2109.7218     -2186.9262    
    243000   3023.1382     -10584.275      11898.208     -2428.028       309.10008     -2118.9279     -2197.5297    
    244000   3040.4881     -4640.166       11898.208     -2420.9099      310.87402     -2110.0359     -2144.4951    
    245000   3081.6125     -3576.4559      11898.208     -2419.6461      315.07878     -2104.5673     -2131.1271    
    246000   3114.0305     -3709.9978      11898.208     -2415.7833      318.39335     -2097.3899     -2124.9414    
    247000   3044.1359     -7691.2004      11898.208     -2419.8671      311.24699     -2108.6201     -2165.7371    
    248000   3158.222      -6926.1906      11898.208     -2426.9575      322.9117      -2104.0458     -2155.4816    
    249000   3131.4515     -6417.2458      11898.208     -2420.0045      320.17455     -2099.83       -2147.4862    
    250000   2857.4019     -7914.967       11898.208     -2418.6846      292.15441     -2126.5302     -2185.309     
    251000   3058.0642     -9197.564       11898.208     -2432.3955      312.67108     -2119.7244     -2188.0281    
    252000   3097.4246     -9180.9955      11898.208     -2432.0359      316.69548     -2115.3404     -2183.521     
    253000   2870.7188     -12991.326      11898.208     -2430.447       293.516       -2136.931      -2233.4082    
    254000   3130.2672     -4627.6704      11898.208     -2415.5127      320.05347     -2095.4593     -2129.8256    
    255000   2808.9931     -13087.883      11898.208     -2425.243       287.20487     -2138.0382     -2235.2324    
    256000   2951.0357     -14140.622      11898.208     -2432.7701      301.72798     -2131.0422     -2236.0543    
    257000   2926.1351     -2723.906       11898.208     -2407.6368      299.18203     -2108.4548     -2128.6833    
    258000   2827.5352     -16312.734      11898.208     -2429.6934      289.1007      -2140.5927     -2261.7356    
    259000   2835.1864     -11647.313      11898.208     -2426.7796      289.88299     -2136.8966     -2223.3928    
    260000   3049.9665     -9746.4515      11898.208     -2426.3252      311.84314     -2114.4821     -2186.8619    
    261000   2932.969      -2418.336       11898.208     -2413.0501      299.88075     -2113.1694     -2131.1286    
    262000   3050.1099     -10604.169      11898.208     -2429.6148      311.8578      -2117.757      -2196.5065    
    263000   3033.5669     -10326.448      11898.208     -2426.2687      310.16636     -2116.1023     -2192.7894    
    264000   3143.5842     -5825.9321      11898.208     -2416.528       321.41506     -2095.113      -2138.3779    
    265000   2934.2581     -13536.903      11898.208     -2431.5209      300.01256     -2131.5084     -2232.0372    
    266000   2933.6237     -4595.4975      11898.208     -2415.3323      299.9477      -2115.3846     -2149.512     
    267000   3107.3538     -12755.551      11898.208     -2432.0318      317.71069     -2114.3212     -2209.0474    
    268000   3060.7851     -2365.2212      11898.208     -2411.1772      312.94928     -2098.2279     -2115.7927    
    269000   2973.0506     -10302.462      11898.208     -2424.5601      303.97889     -2120.5812     -2197.0901    
    270000   2882.4205      846.52881      11898.208     -2407.7982      294.71243     -2113.0858     -2106.7992    
    271000   2892.5605     -4864.3645      11898.208     -2413.3927      295.74919     -2117.6435     -2153.7676    
    272000   3178.764      -7816.3642      11898.208     -2424.0283      325.01201     -2099.0163     -2157.0628    
    273000   2955.587      -8984.8299      11898.208     -2420.5947      302.19333     -2118.4014     -2185.1253    
    274000   2961.8823     -8931.6374      11898.208     -2422.745       302.83698     -2119.908      -2186.2368    
    275000   3183.4794     -6765.9615      11898.208     -2423.6223      325.49413     -2098.1281     -2148.374     
    276000   2988.2168     -9776.8909      11898.208     -2428.8068      305.52955     -2123.2773     -2195.8832    
    277000   2929.0957     -9596.8107      11898.208     -2426.9771      299.48473     -2127.4924     -2198.761     
    278000   2954.9247     -6996.4869      11898.208     -2417.1952      302.12561     -2115.0695     -2167.0274    
    279000   2885.3775     -9230.0902      11898.208     -2421.6768      295.01477     -2126.6621     -2195.2073    
    280000   3122.0321     -10878.468      11898.208     -2428.157       319.21147     -2108.9456     -2189.7321    
    281000   3015.8562     -2976.1283      11898.208     -2415.6606      308.35554     -2107.305      -2129.4066    
    282000   3009.2305     -8799.1013      11898.208     -2422.9917      307.67809     -2115.3136     -2180.6582    
    283000   2979.8662     -7504.9252      11898.208     -2420.0789      304.67575     -2115.4031     -2171.1368    
    284000   2872.7769     -1681.2764      11898.208     -2412.6131      293.72642     -2118.8867     -2131.3723    
    285000   3075.097      -2437.4375      11898.208     -2407.657       314.4126      -2093.2444     -2111.3454    
    286000   2997.5056     -3727.234       11898.208     -2416.4035      306.47928     -2109.9243     -2137.6037    
    287000   3046.2684     -10096.422      11898.208     -2427.5787      311.46503     -2116.1137     -2191.0925    
    288000   3130.0701     -1257.2761      11898.208     -2415.0743      320.03331     -2095.041      -2104.3779    
    289000   3108.3603     -4391.8176      11898.208     -2420.1371      317.8136      -2102.3235     -2134.9384    
    290000   2987.2501      398.83957      11898.208     -2413.7029      305.43071     -2108.2722     -2105.3103    
    291000   3063.6455     -5815.5763      11898.208     -2422.0561      313.24175     -2108.8143     -2152.0024    
    292000   3088.6039     -1130.0833      11898.208     -2412.0307      315.79361     -2096.2371     -2104.6294    
    293000   3005.6706     -5861.0749      11898.208     -2419.5412      307.31412     -2112.2271     -2155.753     
    294000   2851.903      -10242.457      11898.208     -2426.1055      291.59218     -2134.5133     -2210.5767    
    295000   2980.1357     -13480.03       11898.208     -2435.2665      304.70331     -2130.5632     -2230.6696    
    296000   3016.2522     -4965.5477      11898.208     -2411.7733      308.39602     -2103.3773     -2140.2528    
    297000   2859.8822     -13029.616      11898.208     -2430.8345      292.40801     -2138.4265     -2235.188     
    298000   2933.5901     -5520.5659      11898.208     -2416.8463      299.94425     -2116.9021     -2157.8993    
    299000   2984.9951     -5371.8126      11898.208     -2422.79        305.20015     -2117.5899     -2157.4825    
    300000   3059.0602     -3437.6329      11898.208     -2418.1271      312.77292     -2105.3542     -2130.883     
    301000   2999.1618     -8392.236       11898.208     -2421.3684      306.64862     -2114.7198     -2177.0429    
    302000   3013.8195     -4697.271       11898.208     -2418.2806      308.1473      -2110.1333     -2145.0165    
    303000   2999.7392     -8707.6101      11898.208     -2425.2584      306.70765     -2118.5507     -2183.2158    
    304000   2974.2528     -3973.2515      11898.208     -2414.2663      304.10181     -2110.1645     -2139.671     
    305000   3031.6455     -7187.9128      11898.208     -2420.6539      309.96991     -2110.6839     -2164.0634    
    306000   3055.7653     -7247.8961      11898.208     -2420.6582      312.43604     -2108.2221     -2162.047     
    307000   3009.458      -8834.2922      11898.208     -2422.2335      307.70136     -2114.5321     -2180.138     
    308000   3027.5688     -7152.2871      11898.208     -2417.027       309.55309     -2107.4739     -2160.5888    
    309000   3019.254      -13774.021      11898.208     -2434.7826      308.70295     -2126.0797     -2228.3694    
    310000   2952.8869     -9684.1424      11898.208     -2424.6502      301.91726     -2122.733      -2194.6501    
    311000   3067.5821     -3044.3803      11898.208     -2418.341       313.64424     -2104.6968     -2127.3052    
    312000   2915.996      -3930.7707      11898.208     -2411.689       298.14536     -2113.5437     -2142.7346    
    313000   2971.7931     -9557.2084      11898.208     -2423.5455      303.85031     -2119.6952     -2190.6697    
    314000   3011.2726     -9329.3128      11898.208     -2424.0046      307.88689     -2116.1177     -2185.3998    
    315000   3011.3277     -4255.0803      11898.208     -2417.1535      307.89252     -2109.261      -2140.8604    
    316000   2949.4366     -3068.8364      11898.208     -2409.5302      301.56448     -2107.9657     -2130.7557    
    317000   3118.5942     -3558.8596      11898.208     -2414.4633      318.85996     -2095.6033     -2122.0324    
    318000   2982.7708     -9412.5197      11898.208     -2423.7042      304.97273     -2118.7315     -2188.6315    
    319000   3003.6463     -2293.08        11898.208     -2412.0045      307.10714     -2104.8974     -2121.9265    
    320000   2973.7572     -5213.1776      11898.208     -2416.5588      304.05113     -2112.5076     -2151.2221    
    321000   3003.7978     -7465.0468      11898.208     -2421.3503      307.12263     -2114.2277     -2169.6652    
    322000   2922.9313     -3593.5181      11898.208     -2414.8847      298.85445     -2116.0303     -2142.7167    
    323000   2965.008      -3207.8061      11898.208     -2409.805       303.15658     -2106.6484     -2130.4705    
    324000   2815.0662     -16500.517      11898.208     -2432.4839      287.82581     -2144.6581     -2267.1955    
    325000   3073.6322     -11280.019      11898.208     -2430.6463      314.26284     -2116.3835     -2200.152     
    326000   2917.9747     -3475.7614      11898.208     -2415.8571      298.34767     -2117.5094     -2143.3214    
    327000   3083.8596     -9226.4791      11898.208     -2431.0448      315.30853     -2115.7363     -2184.2547    
    328000   3023.3253     -8195.2674      11898.208     -2425.7183      309.11922     -2116.5991     -2177.4594    
    329000   3061.0151     -9786.0552      11898.208     -2426.5433      312.9728      -2113.5705     -2186.2444    
    330000   2994.907      -7380.0418      11898.208     -2423.912       306.21359     -2117.6984     -2172.5046    
    331000   3129.2067     -5786.7434      11898.208     -2418.9712      319.94503     -2099.0262     -2142.0001    
    332000   3081.5822     -7364.8461      11898.208     -2423.9059      315.07568     -2108.8302     -2163.5236    
    333000   3168.8669     -6341.4339      11898.208     -2421.8885      324.00008     -2097.8884     -2144.9817    
    334000   3113.7262     -5950.9268      11898.208     -2422.4694      318.36223     -2104.1072     -2148.3004    
    335000   2904.6816     -9976.3056      11898.208     -2424.5212      296.98852     -2127.5327     -2201.6195    
    336000   2796.3753     -8113.2936      11898.208     -2423.8676      285.91476     -2137.9529     -2198.2045    
    337000   3063.5506     -7282.1462      11898.208     -2418.398       313.23204     -2105.1659     -2159.2452    
    338000   3057.9609     -8452.4968      11898.208     -2419.846       312.66053     -2107.1855     -2169.9561    
    339000   3086.3058     -10890.957      11898.208     -2426.6704      315.55864     -2111.1118     -2191.9911    
    340000   3079.9758     -9143.2637      11898.208     -2430.1821      314.91143     -2115.2707     -2183.1711    
    341000   3012.9671     -12122.304      11898.208     -2429.1697      308.06015     -2121.1095     -2211.1331    
    342000   2898.1389     -10119.756      11898.208     -2423.5896      296.31956     -2127.27       -2202.4221    
    343000   2935.7115     -7016.3389      11898.208     -2417.9025      300.16116     -2117.7414     -2169.8467    
    344000   3086.3238     -27.255494      11898.208     -2407.1404      315.56048     -2091.5799     -2091.7823    
    345000   2891.6488     -12127.222      11898.208     -2428.3236      295.65598     -2132.6676     -2222.7277    
    346000   2870.0286     -4994.5509      11898.208     -2412.0827      293.44542     -2118.6373     -2155.7282    
    347000   3053.4212     -7852.8596      11898.208     -2424.5974      312.19636     -2112.4011     -2170.7186    
    348000   2964.4254      1238.6069      11898.208     -2407.5958      303.09701     -2104.4988     -2095.3006    
    349000   2997.0344     -12148.757      11898.208     -2426.9447      306.4311      -2120.5136     -2210.7337    
    350000   2959.5543     -4005.5523      11898.208     -2413.2136      302.59896     -2110.6147     -2140.361     
    351000   3123.1191     -9880.9122      11898.208     -2425.8823      319.32261     -2106.5597     -2179.9381    
    352000   2792.1608     -3604.6945      11898.208     -2409.1586      285.48385     -2123.6747     -2150.4442    
    353000   2882.066      -15655.888      11898.208     -2435.7053      294.67618     -2141.0291     -2257.2941    
    354000   3081.1199     -12328.215      11898.208     -2431.4042      315.02841     -2116.3758     -2207.9285    
    355000   3009.1291     -13469.42       11898.208     -2436.4494      307.66773     -2128.7817     -2228.8094    
    356000   3054.8199     -12618.592      11898.208     -2433.2112      312.33937     -2120.8718     -2214.581     
    357000   2997.224      -7900.9583      11898.208     -2420.4574      306.4505      -2114.0069     -2172.6816    
    358000   2978.3034     -12666.149      11898.208     -2432.4174      304.51596     -2127.9015     -2221.9638    
    359000   2998.6724     -13239.313      11898.208     -2433.5677      306.59858     -2126.9691     -2225.2879    
    360000   2975.009      -10979.469      11898.208     -2428.0818      304.17912     -2123.9027     -2205.4393    
    361000   3021.1808     -3032.1459      11898.208     -2414.1156      308.89995     -2105.2157     -2127.7332    
    362000   3091.5845     -9305.0364      11898.208     -2427.9369      316.09836     -2111.8386     -2180.9404    
    363000   3042.8222     -3064.9176      11898.208     -2414.7975      311.11267     -2103.6849     -2126.4458    
    364000   3031.76       -6300.6437      11898.208     -2415.6006      309.98162     -2105.619      -2152.4093    
    365000   3047.9326     -12000.901      11898.208     -2436.5646      311.63518     -2124.9295     -2214.0515    
    366000   2922.7699     -13982.565      11898.208     -2434.9195      298.83795     -2136.0815     -2239.9199    
    367000   2982.6583     -5383.4889      11898.208     -2422.6282      304.96123     -2117.6669     -2157.6462    
    368000   3093.803      -10769.767      11898.208     -2430.7671      316.3252      -2114.4419     -2194.4211    
    369000   2962.0113     -1477.6628      11898.208     -2410.0589      302.85018     -2107.2088     -2118.1823    
    370000   3043.8893     -7397.2862      11898.208     -2424.2258      311.22178     -2113.004      -2167.9383    
    371000   2972.8894     -6990.6228      11898.208     -2417.3772      303.96241     -2113.4148     -2165.3291    
    372000   3009.6032     -11336.362      11898.208     -2426.9405      307.7162      -2119.2243     -2203.4113    
    373000   2864.482      -13828.376      11898.208     -2432.1737      292.87832     -2139.2954     -2241.9888    
    374000   3131.7342     -10308.224      11898.208     -2431.8622      320.20345     -2111.6587     -2188.2105    
    375000   3176.7798     -2695.7491      11898.208     -2418.9721      324.80913     -2094.163      -2114.1824    
    376000   2934.8901     -13558.849      11898.208     -2432.613       300.07717     -2132.5358     -2233.2276    
    377000   2921.2138     -8984.2777      11898.208     -2424.5351      298.67885     -2125.8562     -2192.576     
    378000   2974.9556     -3052.4877      11898.208     -2414.1204      304.17367     -2109.9467     -2132.6154    
    379000   3058.0606     -2083.1147      11898.208     -2410.8423      312.67072     -2098.1716     -2113.6414    
    380000   3147.0807     -3287.3155      11898.208     -2419.8873      321.77255     -2098.1147     -2122.5272    
    381000   3015.8044     -9086.6585      11898.208     -2423.4356      308.35024     -2115.0853     -2182.5654    
    382000   3032.7298     -4457.5046      11898.208     -2422.8053      310.08078     -2112.7245     -2145.8272    
    383000   3054.171      -9395.8887      11898.208     -2424.8192      312.27302     -2112.5461     -2182.3226    
    384000   2904.2398     -11674.362      11898.208     -2429.4123      296.94335     -2132.4689     -2219.166     
    385000   2955.6465     -9022.2289      11898.208     -2428.6494      302.19941     -2126.45       -2193.4516    
    386000   3023.9381     -8848.2408      11898.208     -2424.2401      309.18187     -2115.0583     -2180.7677    
    387000   3074.8389     -5010.1149      11898.208     -2416.1406      314.38621     -2101.7544     -2138.9609    
    388000   3102.8842     -7947.6221      11898.208     -2428.4102      317.25369     -2111.1565     -2170.1778    
    389000   3087.1842     -7189.902       11898.208     -2422.9755      315.64845     -2107.3271     -2160.7213    
    390000   3105.8688     -2334.8697      11898.208     -2412.468       317.55885     -2094.9091     -2112.2485    
    391000   3075.5024     -5182.9957      11898.208     -2421.4785      314.45405     -2107.0244     -2145.5148    
    392000   2856.3776     -5162.9447      11898.208     -2414.6802      292.04969     -2122.6305     -2160.972     
    393000   2716.1592     -9838.6424      11898.208     -2423.8531      277.71309     -2146.14       -2219.2045    
    394000   2978.9969     -7282.4566      11898.208     -2425.2477      304.58686     -2120.6608     -2174.7424    
    395000   3069.5045     -6442.6562      11898.208     -2418.7589      313.8408      -2104.9181     -2152.763     
    396000   2980.6235     -10947.478      11898.208     -2428.155       304.75317     -2123.4018     -2204.7008    
    397000   2958.7228     -8097.0297      11898.208     -2423.7061      302.51395     -2121.1922     -2181.323     
    398000   2964.7632     -4327.0053      11898.208     -2411.4041      303.13155     -2108.2726     -2140.4061    
    399000   3031.7082     -8368.5591      11898.208     -2423.6448      309.97632     -2113.6685     -2175.8157    
    400000   2996.037      -6317.3716      11898.208     -2418.2133      306.32912     -2111.8842     -2158.7987    
    401000   3002.3956     -7713.135       11898.208     -2421.7973      306.97926     -2114.8181     -2172.098     
    402000   3101.2366     -216.00944      11898.208     -2411.798       317.08524     -2094.7127     -2096.3169    
    403000   3023.6927     -4574.5832      11898.208     -2416.4801      309.15678     -2107.3233     -2141.2955    
    404000   3089.4413     -5504.1666      11898.208     -2417.4542      315.87923     -2101.5749     -2142.4504    
    405000   2924.6923     -10168.703      11898.208     -2423.7496      299.03451     -2124.7151     -2200.2307    
    406000   3063.0436     -5219.9959      11898.208     -2420.9006      313.1802      -2107.7204     -2146.4855    
    407000   3075.0921     -5866.7756      11898.208     -2425.1807      314.41209     -2110.7686     -2154.3369    
    408000   3149.0747     -7292.0614      11898.208     -2424.655       321.97643     -2102.6785     -2156.8314    
    409000   2996.2723     -7957.6266      11898.208     -2421.6461      306.35319     -2115.293      -2174.3885    
    410000   2890.1176     -10894.898      11898.208     -2426.0076      295.49943     -2130.5081     -2211.4167    
    411000   2993.8956     -8771.1853      11898.208     -2424.3433      306.11018     -2118.2331     -2183.3704    
    412000   3014.2579     -8918.2102      11898.208     -2422.8385      308.19212     -2114.6463     -2180.8755    
    413000   2973.5467     -5316.1465      11898.208     -2419.4405      304.02961     -2115.4108     -2154.89      
    414000   2984.3868     -9633.436       11898.208     -2426.7192      305.13796     -2121.5812     -2193.1218    
    415000   3071.9436     -6626.2752      11898.208     -2424.4475      314.09018     -2110.3573     -2159.5659    
    416000   3089.0315     -10269.596      11898.208     -2427.8085      315.83733     -2111.9712     -2188.2361    
    417000   2999.7413     -11185.985      11898.208     -2430.038       306.70788     -2123.3301     -2206.4003    
    418000   3043.9017     -9265.2993      11898.208     -2426.1213      311.22304     -2114.8983     -2183.7049    
    419000   3007.2206     -8684.0807      11898.208     -2424.5951      307.47259     -2117.1225     -2181.6129    
    420000   2965.246      -8472.652       11898.208     -2419.9456      303.18091     -2116.7647     -2179.685     
    421000   2838.8503     -8720.5391      11898.208     -2422.9207      290.25761     -2132.6631     -2197.4242    
    422000   3022.2633     -6954.8911      11898.208     -2420.9725      309.01063     -2111.9619     -2163.6109    
    423000   2946.3698     -8731.9147      11898.208     -2420.0316      301.25092     -2118.7806     -2183.6263    
    424000   2981.0628     -17112.062      11898.208     -2439.0692      304.79809     -2134.2711     -2261.3501    
    425000   3156.3418     -9876.4837      11898.208     -2429.8926      322.71945     -2107.1732     -2180.5187    
    426000   3079.5458     -2305.8513      11898.208     -2416.5136      314.86746     -2101.6461     -2118.77      
    427000   3089.6773     -1365.7525      11898.208     -2420.1357      315.90336     -2104.2324     -2114.3748    
    428000   2869.0283     -10195.831      11898.208     -2424.7057      293.34315     -2131.3626     -2207.0797    
    429000   2933.128      -10494.961      11898.208     -2430.6899      299.89701     -2130.7929     -2208.7314    
    430000   2931.8851     -12567.634      11898.208     -2431.4837      299.76993     -2131.7138     -2225.0445    
    431000   2943.7269     -589.45976      11898.208     -2402.9491      300.9807      -2101.9684     -2106.3459    
    432000   2941.2045     -4202.4789      11898.208     -2414.0528      300.72279     -2113.33       -2144.5388    
    433000   3001.8624     -8184.1376      11898.208     -2425.1774      306.92474     -2118.2527     -2179.0304    
    434000   2952.8277     -5688.2934      11898.208     -2417.6609      301.91121     -2115.7496     -2157.9925    
    435000   3107.1723     -8430.053       11898.208     -2426.7834      317.69213     -2109.0913     -2171.6952    
    436000   2903.31       -5905.4366      11898.208     -2423.6903      296.84827     -2126.842      -2170.6974    
    437000   3037.1375     -8690.7714      11898.208     -2421.7893      310.53144     -2111.2578     -2175.7979    
    438000   2879.642      -10693.869      11898.208     -2424.6673      294.42835     -2130.2389     -2209.6546    
    439000   2949.1531     -13833.326      11898.208     -2434.9115      301.5355      -2133.376      -2236.1061    
    440000   3018.4705     -13463.493      11898.208     -2437.3797      308.62284     -2128.7569     -2228.7405    
    441000   3047.3265     -9894.3559      11898.208     -2427.7963      311.57321     -2116.2231     -2189.7013    
    442000   3065.0483     -5054.9751      11898.208     -2416.475       313.38517     -2103.0898     -2140.6295    
    443000   2853.5151     -7691.2362      11898.208     -2423.5431      291.75701     -2131.7861     -2188.9034    
    444000   3032.9639     -3275.6298      11898.208     -2417.5284      310.10471     -2107.4237     -2131.7494    
    445000   2982.4322      133.10183      11898.208     -2412.2384      304.93811     -2107.3003     -2106.3119    
    446000   2851.0963     -8451.7209      11898.208     -2419.9416      291.5097      -2128.4319     -2191.1967    
    447000   3128.4353     -3390.1694      11898.208     -2417.0737      319.86616     -2097.2076     -2122.3839    
    448000   3143.305      -5880.6955      11898.208     -2422.4701      321.38652     -2101.0836     -2144.7553    
    449000   3085.1322     -4991.573       11898.208     -2413.4562      315.43865     -2098.0175     -2135.0863    
    450000   2905.7723     -10506.263      11898.208     -2422.5936      297.10004     -2125.4936     -2203.516     
    451000   2914.3649     -8960.5658      11898.208     -2420.1308      297.97858     -2122.1522     -2188.6959    
    452000   2990.3349     -16806.339      11898.208     -2439.3947      305.74612     -2133.6486     -2258.4571    
    453000   3134.2372     -5882.7569      11898.208     -2420.4182      320.45938     -2099.9589     -2143.6458    
    454000   3053.3094     -9219.2842      11898.208     -2423.7711      312.18493     -2111.5862     -2180.0512    
    455000   3062.9222     -10189.348      11898.208     -2426.0499      313.16779     -2112.8821     -2188.551     
    456000   2980.9916     -13712.817      11898.208     -2431.4997      304.79082     -2126.7089     -2228.544     
    457000   2932.7052     -8094.1552      11898.208     -2421.2173      299.85378     -2121.3636     -2181.473     
    458000   3081.8073     -4122.1038      11898.208     -2418.3895      315.0987      -2103.2908     -2133.9027    
    459000   3003.9954     -10112.632      11898.208     -2423.8532      307.14283     -2116.7103     -2191.8096    
    460000   2867.5903     -9773.2146      11898.208     -2423.4059      293.19612     -2130.2098     -2202.7884    
    461000   2968.0651     -13446.821      11898.208     -2428.7104      303.46915     -2125.2413     -2225.1011    
    462000   3172.6177     -6981.1278      11898.208     -2424.1915      324.38358     -2099.8079     -2151.6517    
    463000   3025.8397     -12659.546      11898.208     -2430.8858      309.3763      -2121.5095     -2215.5228    
    464000   2950.5735     -2826.5089      11898.208     -2411.4172      301.68072     -2109.7365     -2130.7269    
    465000   3036.8185     -8649.5119      11898.208     -2423.5658      310.49882     -2113.067      -2177.3007    
    466000   2716.4027     -5877.9753      11898.208     -2413.7591      277.73799     -2136.0212     -2179.6726    
    467000   2865.611      -4335.5567      11898.208     -2412.032       292.99376     -2119.0383     -2151.2353    
    468000   3026.6323     -7809.666       11898.208     -2426.1816      309.45734     -2116.7243     -2174.721     
    469000   3041.1747     -16552.886      11898.208     -2438.5721      310.94422     -2127.6279     -2250.5542    
    470000   2919.0042     -9472.9374      11898.208     -2426.0675      298.45293     -2127.6145     -2197.9632    
    471000   2882.0286     -9434.4848      11898.208     -2418.2883      294.67236     -2123.6159     -2193.679     
    472000   3172.9798     -9948.3977      11898.208     -2435.9353      324.4206      -2111.5147     -2185.3942    
    473000   3016.7146     -8403.63        11898.208     -2420.9929      308.4433      -2112.5496     -2174.9572    
    474000   3052.0541     -6712.9719      11898.208     -2421.8597      312.05658     -2109.8031     -2159.6555    
    475000   3020.0818     -12387.757      11898.208     -2432.1682      308.78759     -2123.3806     -2215.3755    
    476000   3049.305       1220.7514      11898.208     -2406.0563      311.7755      -2094.2808     -2085.2152    
    477000   2939.4075     -11104.323      11898.208     -2426.1735      300.53906     -2125.6345     -2208.0982    
    478000   2888.9275     -5571.1733      11898.208     -2413.8344      295.37774     -2118.4566     -2159.8297    
    479000   2984.1164     -2243.0759      11898.208     -2409.2078      305.1103      -2104.0974     -2120.7552    
    480000   3125.1189     -1548.9407      11898.208     -2415.8412      319.52708     -2096.3141     -2107.8169    
    481000   3012.566      -7544.0776      11898.208     -2414.9527      308.01913     -2106.9335     -2162.958     
    482000   3125.7695     -4143.3972      11898.208     -2417.9876      319.5936      -2098.394      -2129.164     
    483000   2967.5729     -11740.33       11898.208     -2427.7038      303.41882     -2124.285      -2211.472     
    484000   3188.8419     -1193.9162      11898.208     -2414.2468      326.04242     -2088.2044     -2097.0707    
    485000   2955.1385     -12268.43       11898.208     -2430.9611      302.14747     -2128.8137     -2219.9224    
    486000   3088.9425     -9782.7         11898.208     -2424.8176      315.82823     -2108.9894     -2181.6384    
    487000   3037.0154     -7369.3692      11898.208     -2420.7278      310.51895     -2110.2088     -2164.9358    
    488000   3120.1211     -5540.1641      11898.208     -2423.0487      319.01608     -2104.0326     -2145.1754    
    489000   3062.372      -5937.8449      11898.208     -2417.7222      313.11154     -2104.6107     -2148.7068    
    490000   2856.4543     -10745.708      11898.208     -2427.208       292.05753     -2135.1505     -2214.9511    
    491000   2969.6919     -5763.2185      11898.208     -2419.8095      303.63548     -2116.174      -2158.9733    
    492000   3032.8645     -17531.967      11898.208     -2437.5761      310.09455     -2127.4815     -2257.6788    
    493000   2870.1681     -16895.86       11898.208     -2438.2301      293.45969     -2144.7704     -2270.2437    
    494000   2977.3835     -5032.5187      11898.208     -2414.1527      304.4219      -2109.7308     -2147.1037    
    495000   2879.6417     -13434.141      11898.208     -2432.4896      294.42832     -2138.0613     -2237.827     
    496000   2895.9533     -5394.4223      11898.208     -2417.2097      296.09609     -2121.1136     -2161.1741    
    497000   2909.8958     -10615.32       11898.208     -2427.4346      297.52164     -2129.913      -2208.7453    
    498000   3084.2628     -15148.971      11898.208     -2436.2433      315.34975     -2120.8936     -2233.394     
    499000   2935.5005     -3018.6923      11898.208     -2413.9099      300.13959     -2113.7703     -2136.188     
    500000   3014.111      -7931.9825      11898.208     -2418.3504      308.1771      -2110.1733     -2169.0784    
    501000   3044.2958     -7879.3273      11898.208     -2419.2578      311.26334     -2107.9945     -2166.5085    
    502000   2970.2781     -7688.6245      11898.208     -2420.2431      303.69541     -2116.5477     -2173.6455    
    503000   3115.7836     -10450.998      11898.208     -2424.8385      318.57259     -2106.2659     -2183.8779    
    504000   2974.4388     -9727.0218      11898.208     -2424.6536      304.12082     -2120.5328     -2192.7684    
    505000   2867.1433     -12067.793      11898.208     -2429.1291      293.15042     -2135.9787     -2225.5975    
    506000   2936.8214     -10296.324      11898.208     -2424.372       300.27464     -2124.0974     -2200.5607    
    507000   2979.9489     -11944.303      11898.208     -2433.5822      304.6842      -2128.898      -2217.5997    
    508000   3234.0829     -990.20205      11898.208     -2411.7641      330.66808     -2081.096      -2088.4495    
    509000   3098.3472     -5599.5431      11898.208     -2416.4655      316.78982     -2099.6756     -2141.2594    
    510000   2959.8826     -3317.8497      11898.208     -2410.9631      302.63253     -2108.3306     -2132.9699    
    511000   2859.1568     -6034.9828      11898.208     -2418.2089      292.33384     -2125.8751     -2170.6925    
    512000   2995.4536     -13494.716      11898.208     -2432.3644      306.26948     -2126.0949     -2226.3104    
    513000   3051.3763     -8689.0914      11898.208     -2425.0805      311.98729     -2113.0932     -2177.6208    
    514000   3078.2825     -11863.491      11898.208     -2430.4267      314.7383      -2115.6884     -2203.7899    
    515000   3326.024       1666.2173      11898.208     -2406.4097      340.06858     -2066.3411     -2053.9673    
    516000   3020.3647     -9261.6728      11898.208     -2425.4884      308.81651     -2116.6719     -2185.4516    
    517000   3089.1165     -13261.929      11898.208     -2434.6028      315.84602     -2118.7568     -2217.2436    
    518000   2827.9203     -9724.322       11898.208     -2422.1418      289.14007     -2133.0017     -2205.2172    
    519000   2859.8099     -14640.601      11898.208     -2429.6675      292.40062     -2137.2669     -2245.992     
    520000   3081.3009     -7412.3764      11898.208     -2423.6402      315.04692     -2108.5933     -2163.6397    
    521000   2946.0463     -3935.6599      11898.208     -2413.4932      301.21784     -2112.2754     -2141.5027    
    522000   3041.5704     -7606.9393      11898.208     -2423.5503      310.98469     -2112.5656     -2169.0569    
    523000   3142.4404     -9613.2712      11898.208     -2428.8224      321.29811     -2107.5243     -2178.9152    
    524000   2943.6339     -11173.485      11898.208     -2429.6264      300.97119     -2128.6552     -2211.6326    
    525000   3009.4565     -15615.16       11898.208     -2434.9719      307.7012      -2127.2707     -2243.2332    
    526000   3029.9315     -6805.9609      11898.208     -2418.7861      309.79466     -2108.9914     -2159.5344    
    527000   3026.5853     -8235.8605      11898.208     -2423.5402      309.45253     -2114.0877     -2175.2495    
    528000   2841.6768     -6358.9382      11898.208     -2419.4649      290.5466      -2128.9183     -2176.1416    
    529000   3029.2549     -5157.9061      11898.208     -2417.6713      309.72548     -2107.9458     -2146.2499    
    530000   2907.6588     -2419.7654      11898.208     -2411.5115      297.29292     -2114.2185     -2132.1884    
    531000   2919.7783     -12106.309      11898.208     -2427.5537      298.53207     -2129.0216     -2218.9264    
    532000   3186.0306     -7931.6164      11898.208     -2421.9006      325.75498     -2096.1456     -2155.048     
    533000   2917.955      -10574.8        11898.208     -2427.6452      298.34565     -2129.2996     -2207.831     
    534000   3136.3098     -9948.9566      11898.208     -2428.487       320.67128     -2107.8157     -2181.6994    
    535000   2959.8949     -4686.064       11898.208     -2413.5105      302.63379     -2110.8767     -2145.6767    
    536000   3080.1757     -5486.3351      11898.208     -2419.5628      314.93187     -2104.6309     -2145.374     
    537000   2943.2482     -13069.827      11898.208     -2430.6569      300.93175     -2129.7251     -2226.7853    
    538000   2712.8324     -14024.094      11898.208     -2428.7799      277.37294     -2151.407      -2255.5538    
    539000   3192.2586     -8351.6785      11898.208     -2427.8763      326.39177     -2101.4845     -2163.5064    
    540000   3040.124      -6489.9972      11898.208     -2422.3848      310.83679     -2111.548      -2159.7445    
    541000   3017.8074     -6298.2759      11898.208     -2419.0464      308.55504     -2110.4914     -2157.2641    
    542000   2958.4849     -2551.2332      11898.208     -2414.1466      302.48963     -2111.657      -2130.6031    
    543000   3112.9314     -6881.3404      11898.208     -2426.4633      318.28097     -2108.1823     -2159.285     
    544000   2961.1825     -292.3562       11898.208     -2408.0067      302.76544     -2105.2412     -2107.4123    
    545000   3043.2578     -11409.604      11898.208     -2433.532       311.15721     -2122.3748     -2207.1056    
    546000   2939.2904     -8862.4943      11898.208     -2423.6335      300.52708     -2123.1064     -2188.9218    
    547000   3073.8777     -3324.4807      11898.208     -2415.2762      314.28793     -2100.9883     -2125.6768    
    548000   3085.0653     -1306.1103      11898.208     -2410.9371      315.43181     -2095.5052     -2105.2048    
    549000   2944.1677     -7025.5953      11898.208     -2417.3816      301.02577     -2116.3558     -2168.5298    
    550000   3028.9521     -7309.1144      11898.208     -2424.1734      309.69452     -2114.4789     -2168.7584    
    551000   2956.229      -9791.4651      11898.208     -2423.5188      302.25897     -2121.2598     -2193.974     
    552000   3197.1114     -10611.786      11898.208     -2430.3395      326.88793     -2103.4516     -2182.2577    
    553000   3126.5151     -2666.7417      11898.208     -2417.2413      319.66983     -2097.5715     -2117.3755    
    554000   2972.0951     -8883.6681      11898.208     -2423.9934      303.88119     -2120.1123     -2186.0848    
    555000   3070.6153     -5248.6902      11898.208     -2423.7524      313.95437     -2109.798      -2148.7762    
    556000   3061.8021     -7848.0557      11898.208     -2423.1093      313.05326     -2110.056      -2168.3379    
    557000   2979.7767     -8274.6003      11898.208     -2424.3155      304.6666      -2119.6489     -2181.0984    
    558000   2941.8247     -11000.796      11898.208     -2427.2272      300.7862      -2126.441      -2208.136     
    559000   3164.3325     -6795.3512      11898.208     -2420.125       323.53646     -2096.5885     -2147.0527    
    560000   3052.5155     -5625.5271      11898.208     -2419.4948      312.10376     -2107.391      -2149.1678    
    561000   2867.1469     -13065.074      11898.208     -2427.1003      293.15079     -2133.9495     -2230.9743    
    562000   2918.4437     -7505.6234      11898.208     -2424.5928      298.39561     -2126.1971     -2181.936     
    563000   3106.5036     -5765.8023      11898.208     -2417.03        317.62376     -2099.4062     -2142.2246    
    564000   3153.6601     -7393.1222      11898.208     -2426.9435      322.44527     -2104.4983     -2159.4017    
    565000   2936.2638     -4809.093       11898.208     -2416.8766      300.21763     -2116.659      -2152.3726    
    566000   3027.7857     -2613.8816      11898.208     -2417.4652      309.57527     -2107.8899     -2127.3013    
    567000   2734.8273     -11336.21       11898.208     -2422.7426      279.6218      -2143.1208     -2227.3066    
    568000   3104.9893     -11302.067      11898.208     -2434.3782      317.46894     -2116.9093     -2200.8416    
    569000   3012.3386     -10394.014      11898.208     -2427.1516      307.99588     -2119.1557     -2196.3445    
    570000   3013.8227     -6931.6604      11898.208     -2418.9187      308.14762     -2110.7711     -2162.2476    
    571000   3037.2742     -6109.2031      11898.208     -2421.3437      310.54542     -2110.7983     -2156.1669    
    572000   2905.3448     -5250.0927      11898.208     -2417.3287      297.05633     -2120.2724     -2159.261     
    573000   3082.5054     -8617.2198      11898.208     -2426.6821      315.17007     -2111.512      -2175.5059    
    574000   3170.9031     -7642.1613      11898.208     -2424.2698      324.20827     -2100.0616     -2156.8144    
    575000   3126.9916     -1940.9567      11898.208     -2410.799       319.71855     -2091.0804     -2105.4945    
    576000   3067.2931     -7796.8806      11898.208     -2424.0917      313.61469     -2110.477      -2168.3788    
    577000   3005.8285     -14029.225      11898.208     -2434.2031      307.33026     -2126.8728     -2231.0577    
    578000   2843.838      -10736.996      11898.208     -2426.9204      290.76757     -2136.1528     -2215.8887    
    579000   3029.8139     -12140.303      11898.208     -2425.8011      309.78264     -2116.0184     -2206.1757    
    580000   3052.2119     -3570.6521      11898.208     -2416.0547      312.07271     -2103.982      -2130.4987    
    581000   3066.7657     -1527.0845      11898.208     -2414.1785      313.56077     -2100.6177     -2111.9583    
    582000   2974.5528     -6696.2176      11898.208     -2419.9368      304.13248     -2115.8043     -2165.5322    
    583000   3117.2611     -7701.0916      11898.208     -2425.9566      318.72365     -2107.233      -2164.4234    
    584000   3057.1828     -6771.4876      11898.208     -2422.7037      312.58097     -2110.1228     -2160.4097    
    585000   3063.5376     -12283.375      11898.208     -2432.6592      313.23071     -2119.4285     -2210.6482    
    586000   3051.4492     -11763.285      11898.208     -2432.2905      311.99473     -2120.2958     -2207.6532    
[...]
   4841000   2946.9935     -8715.1273      11898.208     -2422.669       301.31468     -2121.3543     -2186.0752    
   4842000   3004.584      -13282.536      11898.208     -2431.0379      307.20302     -2123.8349     -2222.4747    
   4843000   2796.5454     -7597.9411      11898.208     -2419.0178      285.93215     -2133.0856     -2189.5101    
   4844000   2865.9835     -4974.6612      11898.208     -2415.7869      293.03184     -2122.7551     -2159.6983    
   4845000   3022.9114     -3317.6242      11898.208     -2414.8022      309.07689     -2105.7253     -2130.3629    
   4846000   3098.3227     -11080.152      11898.208     -2428.1839      316.78731     -2111.3966     -2193.6809    
   4847000   2980.0697     -5983.0165      11898.208     -2422.1027      304.69656     -2117.4061     -2161.8377    
   4848000   2905.0692     -5769.4272      11898.208     -2415.3724      297.02814     -2118.3443     -2161.1896    
   4849000   2984.1391     -13742.143      11898.208     -2435.4964      305.11263     -2130.3837     -2232.4367    
   4850000   3073.3283     -9856.3791      11898.208     -2426.8482      314.23176     -2112.6165     -2185.8127    
   4851000   3090.4532     -6010.5094      11898.208     -2417.265       315.98269     -2101.2823     -2145.918     
   4852000   3191.8003     -5638.7702      11898.208     -2423.3086      326.3449      -2096.9637     -2138.8388    
   4853000   3061.9724     -11330.205      11898.208     -2430.1337      313.07068     -2117.063      -2201.2043    
   4854000   2875.1872     -4898.8883      11898.208     -2416.0855      293.97287     -2122.1126     -2158.4931    
   4855000   3055.5049     -8264.626       11898.208     -2422.3947      312.40941     -2109.9853     -2171.3607    
   4856000   3162.8244     -5614.2623      11898.208     -2417.0892      323.38227     -2093.7069     -2135.4       
   4857000   3153.947      -8590.2024      11898.208     -2427.5641      322.4746      -2105.0895     -2168.8827    
   4858000   3046.7296     -9529.072       11898.208     -2427.0653      311.51218     -2115.5531     -2186.3186    
   4859000   3014.4622     -14709.79       11898.208     -2434.4097      308.21301     -2126.1967     -2235.4357    
   4860000   2820.6873     -3997.9846      11898.208     -2410.6525      288.40054     -2122.2519     -2151.9421    
   4861000   3043.1563     -7390.5301      11898.208     -2426.0799      311.14683     -2114.9331     -2169.8172    
   4862000   2899.3022     -13999.268      11898.208     -2432.7506      296.4385      -2136.3121     -2240.2746    
   4863000   3002.5713     -10811.25       11898.208     -2427.2809      306.99722     -2120.2837     -2200.571     
   4864000   3024.2517     -11244.419      11898.208     -2431.2979      309.21394     -2122.084      -2205.5881    
   4865000   2962.8663     -8514.0481      11898.208     -2422.082       302.9376      -2119.1444     -2182.3721    
   4866000   3048.4213     -6277.5506      11898.208     -2423.6943      311.68515     -2112.0092     -2158.628     
   4867000   2776.2037     -9066.8458      11898.208     -2420.9431      283.85232     -2137.0908     -2204.4237    
   4868000   3104.5457     -11480.848      11898.208     -2431.7947      317.42358     -2114.3711     -2199.6311    
   4869000   2829.8892     -8194.3234      11898.208     -2420.4292      289.34139     -2131.0878     -2191.9411    
   4870000   2873.0943     -5752.1084      11898.208     -2417.962       293.75888     -2124.2031     -2166.9199    
   4871000   2888.6013     -4385.1452      11898.208     -2417.6809      295.34439     -2122.3365     -2154.9018    
   4872000   2943.4071     -9870.6087      11898.208     -2425.2312      300.948       -2124.2832     -2197.5851    
   4873000   2834.4862     -8149.6816      11898.208     -2420.9215      289.8114      -2131.1101     -2191.6319    
   4874000   3023.7433     -7285.9673      11898.208     -2418.096       309.16196     -2108.934      -2163.0416    
   4875000   3066.8284     -4122.4219      11898.208     -2418.9196      313.56718     -2105.3524     -2135.9667    
   4876000   2920.4295     -6571.3702      11898.208     -2418.3298      298.59866     -2119.7312     -2168.532     
   4877000   3104.7709     -1600.5031      11898.208     -2415.2452      317.4466      -2097.7986     -2109.6844    
   4878000   2958.813      -7623.7213      11898.208     -2419.0164      302.52317     -2116.4932     -2173.1091    
   4879000   3115.1263     -3126.5289      11898.208     -2419.0081      318.50538     -2100.5027     -2123.7212    
   4880000   3006.9269     -13285.842      11898.208     -2432.3094      307.44256     -2124.8668     -2223.5312    
   4881000   2975.0704     -5524.2731      11898.208     -2411.9761      304.1854      -2107.7907     -2148.8155    
   4882000   3111.5626     -7228.7669      11898.208     -2424.8262      318.14102     -2106.6852     -2160.368     
   4883000   3054.8809     -10423.661      11898.208     -2424.7286      312.34561     -2112.383      -2189.792     
   4884000   3021.4043     -7841.6075      11898.208     -2424.6876      308.92281     -2115.7648     -2173.9987    
   4885000   3024.5799     -7274.3821      11898.208     -2426.2393      309.24749     -2116.9918     -2171.0134    
   4886000   2953.4125     -10711.821      11898.208     -2429.753       301.97099     -2127.782      -2207.331     
   4887000   2961.092      -10697.763      11898.208     -2425.7671      302.75618     -2123.0109     -2202.4555    
   4888000   3143.7759     -11081.08       11898.208     -2435.1159      321.43466     -2113.6812     -2195.9724    
   4889000   2922.5743     -5608.3127      11898.208     -2417.3473      298.81795     -2118.5294     -2160.1782    
   4890000   3056.2994     -6531.9023      11898.208     -2418.6919      312.49064     -2106.2013     -2154.709     
   4891000   3005.1496     -5265.6296      11898.208     -2414.8417      307.26085     -2107.5809     -2146.6849    
   4892000   2994.9755     -4102.3781      11898.208     -2417.3221      306.2206      -2111.1015     -2141.5669    
   4893000   3062.1659     -2019.5822      11898.208     -2409.1041      313.09046     -2096.0137     -2111.0117    
   4894000   2825.0692     -6580.4433      11898.208     -2415.5873      288.84856     -2126.7388     -2175.607     
   4895000   3100.0351     -9682.8919      11898.208     -2429.8017      316.96239     -2112.8393     -2184.7472    
   4896000   3113.9713      4499.8388      11898.208     -2402.3199      318.38729     -2083.9326     -2050.5155    
   4897000   3019.9988     -6940.9701      11898.208     -2423.1895      308.7791      -2114.4104     -2165.9559    
   4898000   2933.1966     -5168.5799      11898.208     -2423.299       299.90403     -2123.3949     -2161.7782    
   4899000   3032.2233     -5190.7874      11898.208     -2421.0861      310.02899     -2111.0571     -2149.6053    
   4900000   2949.4957     -6671.6968      11898.208     -2423.1406      301.57052     -2121.5701     -2171.116     
   4901000   3045.5762     -4349.3722      11898.208     -2420.1708      311.39425     -2108.7766     -2141.0762    
   4902000   2984.3428     -5226.8728      11898.208     -2416.5283      305.13346     -2111.3949     -2150.2111    
   4903000   3117.6651     -9459.2145      11898.208     -2426.2312      318.76497     -2107.4662     -2177.713     
   4904000   2935.1286     -4236.7673      11898.208     -2417.7343      300.10157     -2117.6328     -2149.0962    
   4905000   2904.0651     -4583.6127      11898.208     -2418.6499      296.92548     -2121.7245     -2155.7636    
   4906000   2909.8776     -4183.0808      11898.208     -2413.9012      297.51978     -2116.3814     -2147.4462    
   4907000   2906.4621     -7565.7014      11898.208     -2421.145       297.17056     -2123.9744     -2180.1594    
   4908000   3011.997      -8438.4954      11898.208     -2427.2445      307.96095     -2119.2835     -2181.9501    
   4909000   3123.3584     -5534.6816      11898.208     -2420.0224      319.34707     -2100.6753     -2141.7774    
   4910000   3083.3164     -4808.865       11898.208     -2417.1852      315.25299     -2101.9323     -2137.6442    
   4911000   3075.5658     -8223.696       11898.208     -2426.206       314.46053     -2111.7454     -2172.8169    
   4912000   3048.433      -3143.3504      11898.208     -2419.1903      311.68634     -2107.5039     -2130.8473    
   4913000   3048.5818     -4465.3051      11898.208     -2412.6923      311.70156     -2100.9908     -2134.1514    
   4914000   3107.4628     -6912.2265      11898.208     -2419.2989      317.72183     -2101.5771     -2152.9092    
   4915000   2897.6387     -10330.724      11898.208     -2423.5146      296.26842     -2127.2462     -2203.965     
   4916000   3026.4813     -7591.7217      11898.208     -2422.5704      309.4419      -2113.1285     -2169.5068    
   4917000   2965.2981     -8999.4998      11898.208     -2432.5692      303.18623     -2129.383      -2196.2158    
   4918000   3071.3372     -8300.5316      11898.208     -2423.4002      314.02818     -2109.372      -2171.0141    
   4919000   2921.139      -12610.6        11898.208     -2429.9091      298.67119     -2131.2379     -2224.8877    
   4920000   2870.3544     -13566.142      11898.208     -2430.0733      293.47874     -2136.5946     -2237.3405    
   4921000   2988.282      -9268.7738      11898.208     -2426.3922      305.53622     -2120.856      -2189.6885    
   4922000   2918.5509     -8556.2149      11898.208     -2424.7678      298.40657     -2126.3612     -2189.902     
   4923000   2955.3256     -11053.993      11898.208     -2431.8669      302.1666      -2129.7003     -2211.7903    
   4924000   2991.7989     -8821.6662      11898.208     -2429.4965      305.89581     -2123.6007     -2189.1128    
   4925000   3047.2547     -1422.3628      11898.208     -2417.3443      311.56587     -2105.7785     -2116.3413    
   4926000   3040.7745     -5555.941       11898.208     -2418.989       310.90331     -2108.0857     -2149.3456    
   4927000   3023.9817     -9070.9127      11898.208     -2425.0537      309.18633     -2115.8674     -2183.2305    
   4928000   3102.3109     -4724.6226      11898.208     -2421.4012      317.19508     -2104.2061     -2139.2925    
   4929000   2933.2795     -8826.5636      11898.208     -2423.0935      299.9125      -2123.181      -2188.7295    
   4930000   3079.7881      20.448722      11898.208     -2414.6859      314.89224     -2099.7937     -2099.6418    
   4931000   3014.4037     -6431.0639      11898.208     -2421.3978      308.20703     -2113.1908     -2160.9496    
   4932000   3030.6007     -9713.1829      11898.208     -2427.6376      309.86308     -2117.7746     -2189.9073    
   4933000   3019.9333     -6954.4971      11898.208     -2419.3273      308.7724      -2110.5549     -2162.201     
   4934000   3054.6056     -9099.9326      11898.208     -2429.8387      312.31746     -2117.5212     -2185.0999    
   4935000   3026.7045     -10981.957      11898.208     -2428.8463      309.46472     -2119.3815     -2200.9366    
   4936000   2955.5088     -6948.0236      11898.208     -2421.7322      302.18533     -2119.5469     -2171.1449    
   4937000   3079.0102     -4063.9175      11898.208     -2422.9552      314.8127      -2108.1425     -2138.3222    
   4938000   2830.8788     -15943.831      11898.208     -2433.9757      289.44256     -2144.5331     -2262.9365    
   4939000   3005.7625     -6238.5283      11898.208     -2423.1338      307.32351     -2115.8103     -2162.1394    
   4940000   3072.993      -8223.9736      11898.208     -2428.574       314.19748     -2114.3765     -2175.45      
   4941000   2979.857      -8554.6108      11898.208     -2426.0059      304.67481     -2121.3311     -2184.86      
   4942000   2851.2194     -7219.3906      11898.208     -2416.7856      291.52229     -2125.2633     -2178.8765    
   4943000   3131.4245     -2036.7388      11898.208     -2409.8611      320.1718      -2089.6893     -2104.8147    
   4944000   2871.0019     -9173.0822      11898.208     -2422.4291      293.54495     -2128.8841     -2197.006     
   4945000   3126.6751     -10194.602      11898.208     -2429.8085      319.68619     -2110.1224     -2185.8303    
   4946000   3059.4119     -8782.7132      11898.208     -2427.1561      312.80888     -2114.3472     -2179.5701    
   4947000   2844.8173     -13046.707      11898.208     -2430.6015      290.86771     -2139.7338     -2236.6222    
   4948000   3021.5421     -1077.1757      11898.208     -2412.1428      308.93689     -2103.2059     -2111.2053    
   4949000   2963.231      -9567.8198      11898.208     -2425.7298      302.97489     -2122.7549     -2193.8082    
   4950000   3029.085      -8809.3919      11898.208     -2424.6468      309.70812     -2114.9387     -2180.3597    
   4951000   3029.5458     -13674          11898.208     -2436.377       309.75522     -2126.6217     -2228.1687    
   4952000   2985.5836     -11275.416      11898.208     -2427.489       305.26032     -2122.2287     -2205.9631    
   4953000   2941.8034     -11642.824      11898.208     -2425.2691      300.78402     -2124.4851     -2210.9479    
   4954000   3149.4871     -6574.5185      11898.208     -2425.6558      322.0186      -2103.6372     -2152.4614    
   4955000   3046.9429     -9279.9172      11898.208     -2430.1222      311.53399     -2118.5882     -2187.5035    
   4956000   3019.7597     -11506.184      11898.208     -2426.4216      308.75465     -2117.667      -2203.1151    
   4957000   3144.7659     -5467.8354      11898.208     -2417.9065      321.53588     -2096.3706     -2136.9763    
   4958000   2910.5702     -5865.5873      11898.208     -2413.1143      297.5906      -2115.5237     -2159.0832    
   4959000   2955.4895     -9428.4727      11898.208     -2425.1415      302.18336     -2122.9581     -2192.9766    
   4960000   3065.526       192.13384      11898.208     -2410.5621      313.43402     -2097.1281     -2095.7012    
   4961000   3024.3572     -5372.1424      11898.208     -2418.7937      309.22472     -2109.569      -2149.464     
   4962000   2934.3827     -591.51308      11898.208     -2414.1361      300.0253      -2114.1108     -2118.5036    
   4963000   2910.5272     -6050.6783      11898.208     -2416.5032      297.5862      -2118.917      -2163.851     
   4964000   3057.9071     -1514.1877      11898.208     -2408.6439      312.65503     -2095.9889     -2107.2337    
   4965000   2966.5034     -1151.7728      11898.208     -2407.7437      303.30948     -2104.4342     -2112.9876    
   4966000   3122.4334     -5184.1094      11898.208     -2423.5945      319.2525      -2104.342      -2142.8406    
   4967000   3065.6633     -7018.6459      11898.208     -2423.933       313.44805     -2110.485      -2162.6074    
   4968000   2960.0353     -9406.594       11898.208     -2426.8026      302.64814     -2124.1544     -2194.0104    
   4969000   2966.1581     -5906.3124      11898.208     -2419.801       303.27417     -2116.5268     -2160.3887    
   4970000   3057.9038     -1914.2956      11898.208     -2408.1545      312.65468     -2095.4998     -2109.7159    
   4971000   3130.9403     -7082.4434      11898.208     -2418.6823      320.12229     -2098.56       -2151.1562    
   4972000   3057.3595     -13825.732      11898.208     -2429.4793      312.59903     -2116.8802     -2219.554     
   4973000   2982.5229      214.50226      11898.208     -2408.2926      304.94738     -2103.3452     -2101.7522    
   4974000   3174.7003     -7774.2398      11898.208     -2424.4976      324.59652     -2099.9011     -2157.6347    
   4975000   3056.3769     -5093.044       11898.208     -2417.2261      312.49857     -2104.7276     -2142.5499    
   4976000   2933.1332     -14356.657      11898.208     -2432.276       299.89754     -2132.3785     -2238.995     
   4977000   2950.0464     -11716.705      11898.208     -2425.4359      301.62683     -2123.8091     -2210.8206    
   4978000   2997.6362     -6566.2133      11898.208     -2421.3003      306.49264     -2114.8077     -2163.5702    
   4979000   2976.8897     -4227.2338      11898.208     -2417.2423      304.37142     -2112.8709     -2144.2635    
   4980000   3041.4535     -10311.117      11898.208     -2433.6316      310.97273     -2122.6588     -2199.2321    
   4981000   3104.3863     -9713.703       11898.208     -2430.2065      317.40727     -2112.7992     -2184.9359    
   4982000   3123.8652     -8409.7915      11898.208     -2425.4172      319.39889     -2106.0183     -2168.4718    
   4983000   2977.8854     -4668.5828      11898.208     -2415.5785      304.47322     -2111.1052     -2145.7754    
   4984000   2846.0979     -8382.6168      11898.208     -2422.4173      290.99864     -2131.4187     -2193.6703    
   4985000   3065.6486     -7671.1365      11898.208     -2420.1536      313.44655     -2106.7071     -2163.6751    
   4986000   3033.4249     -2521.4139      11898.208     -2410.3075      310.15185     -2100.1557     -2118.8804    
   4987000   3124.2816     -6716.9692      11898.208     -2422.9515      319.44147     -2103.51       -2153.3921    
   4988000   2996.1766     -12843.176      11898.208     -2434.1518      306.3434      -2127.8084     -2223.1854    
   4989000   3049.1366     -15058.441      11898.208     -2434.021       311.75828     -2122.2628     -2234.0909    
   4990000   3092.452      -5983.193       11898.208     -2419.834       316.18706     -2103.647      -2148.0798    
   4991000   3073.0532     -9033.8512      11898.208     -2427.304       314.20364     -2113.1003     -2180.1882    
   4992000   3027.8544     -7696.5539      11898.208     -2421.6122      309.58229     -2112.0299     -2169.1867    
   4993000   3148.9062     -3986.0918      11898.208     -2419.685       321.9592      -2097.7258     -2127.3276    
   4994000   2971.7039     -5635.0697      11898.208     -2421.2772      303.8412      -2117.436      -2159.2836    
   4995000   2935.9273     -17755.295      11898.208     -2442.2344      300.18323     -2142.0512     -2273.9069    
   4996000   2931.2163     -12630.157      11898.208     -2428.6435      299.70155     -2128.9419     -2222.737     
   4997000   2894.7879     -13003.4        11898.208     -2427.4534      295.97694     -2131.4765     -2228.0433    
   4998000   2946.6451     -11948.324      11898.208     -2430.4758      301.27907     -2129.1968     -2217.9283    
   4999000   3022.705      -6411.8773      11898.208     -2417.6124      309.05579     -2108.5566     -2156.173     
   5000000   3083.735      -988.62787      11898.208     -2408.0741      315.29579     -2092.7783     -2100.1201    
Loop time of 3463.79 on 8 procs for 5000000 steps with 792 atoms

Performance: 124.719 ns/day, 0.192 hours/ns, 1443.504 timesteps/s
56.9% CPU use with 8 MPI tasks x 1 OpenMP threads

MPI task timing breakdown:
Section |  min time  |  avg time  |  max time  |%varavg| %total
---------------------------------------------------------------
Pair    | 1992.5     | 2017.2     | 2041.8     |  34.3 | 58.24
Neigh   | 24.875     | 25.512     | 26.16      |   9.1 |  0.74
Comm    | 1140.7     | 1174.1     | 1198.7     |  60.8 | 33.90
Output  | 1.878      | 2.0354     | 2.3299     |   9.0 |  0.06
Modify  | 152.33     | 194.19     | 235.82     | 174.6 |  5.61
Other   |            | 50.81      |            |       |  1.47

Nlocal:             99 ave         103 max          93 min
Histogram: 1 0 0 2 0 0 0 2 1 2
Nghost:        1386.75 ave        1407 max        1375 min
Histogram: 2 2 0 1 0 2 0 0 0 1
Neighs:           8110 ave        8644 max        7050 min
Histogram: 1 0 1 0 0 0 1 1 2 2
FullNghs:        16220 ave       16956 max       15054 min
Histogram: 1 0 1 1 0 0 0 2 1 2

Total # of neighbors = 129760
Ave neighs/atom = 163.83838
Neighbor list builds = 114827
Dangerous builds = 0
Total wall time: 0:59:06
