LAMMPS (2 Jun 2022)
OMP_NUM_THREADS environment is not set. Defaulting to 1 thread. (src/comm.cpp:98)
  using 1 OpenMP thread(s) per MPI task
units metal
atom_style atomic
lattice fcc 3.61
Lattice spacing in x,y,z = 3.61 3.61 3.61
region box block 0 5 0 5 0 5
create_box 1 box
Created orthogonal box = (0 0 0) to (18.05 18.05 18.05)
  2 by 2 by 2 MPI processor grid
create_atoms 1 box
Created 500 atoms
  using lattice units in orthogonal box = (0 0 0) to (18.05 18.05 18.05)
  create_atoms CPU = 0.000 seconds
mass 1 64
velocity all create 6000 6000

pair_style lj/cut 3.6
pair_coeff 1 1 0.167 2.314 3.6
neighbor 2.0 bin
neigh_modify every 20 delay 0 check no

fix 1 all nvt temp 6000 6000 100

thermo 1000
thermo_style custom step temp press vol pe ke etotal enthalpy
thermo_modify flush yes
compute 1 all orientorder/atom degrees 3 4 6 8
dump 1 all custom 1000 dump.traj id c_1[2] c_1[3]
run 1000000
Generated 0 of 0 mixed pair_coeff terms from geometric mixing rule
Neighbor list info ...
  update every 20 steps, delay 0 steps, check no
  max neighbors/atom: 2000, page size: 100000
  master list distance cutoff = 5.6
  ghost atom cutoff = 5.6
  binsize = 2.8, bins = 7 7 7
  2 neighbor lists, perpetual/occasional/extra = 1 1 0
  (1) pair lj/cut, perpetual
      attributes: half, newton on
      pair build: half/bin/atomonly/newton
      stencil: half/bin/3d
      bin: standard
  (2) compute orientorder/atom, occasional
      attributes: full, newton on
      pair build: full/bin/atomonly
      stencil: full/bin/3d
      bin: standard
Per MPI rank memory allocation (min/avg/max) = 4.853 | 4.853 | 4.853 Mbytes
   Step          Temp          Press          Volume         PotEng         KinEng         TotEng        Enthalpy   
         0   6000           136843.32      5880.7351     -494.9565       387.00487     -107.95163      394.32719    
      1000   3175.1371      349391.32      5880.7351     -342.68761      204.79892     -137.88869      1144.5404    
      2000   3320.211       340069.08      5880.7351     -351.97268      214.15631     -137.81637      1110.3958    
      3000   3155.4315      351959.72      5880.7351     -340.71597      203.5279      -137.18808      1154.6683    
      4000   3158.9994      351373.89      5880.7351     -341.27033      203.75803     -137.51231      1152.1938    
      5000   3216.3389      346946.28      5880.7351     -344.5573       207.45647     -137.10083      1136.3538    
      6000   3180.3372      350610.8       5880.7351     -342.01568      205.13433     -136.88135      1150.0238    
      7000   3166.4277      351655.87      5880.7351     -341.17661      204.23716     -136.93945      1153.8016    
      8000   3096.1013      356461.15      5880.7351     -336.53393      199.70105     -136.83288      1171.5458    
      9000   3092.2223      357665.34      5880.7351     -335.76312      199.45085     -136.31227      1176.4864    
     10000   3368.4027      337181.54      5880.7351     -354.03483      217.26471     -136.77012      1100.8434    
     11000   3179.9154      351573.21      5880.7351     -341.41644      205.10713     -136.30931      1154.1284    
     12000   3211.1214      348956.82      5880.7351     -343.45886      207.11994     -136.33892      1144.4954    
     13000   3184.8292      351196.4       5880.7351     -341.09894      205.42407     -135.67487      1153.3797    
     14000   3001.1121      365868.05      5880.7351     -329.0726       193.57417     -135.49843      1207.408     
     15000   3124.2092      356468.25      5880.7351     -337.0052       201.51403     -135.49117      1172.9136    
     16000   3139.8305      355761.12      5880.7351     -337.24432      202.52162     -134.72271      1171.0866    
     17000   3313.8052      342983.64      5880.7351     -347.88729      213.74313     -134.14416      1124.7658    
     18000   3186.6125      353482.28      5880.7351     -339.62405      205.53909     -134.08495      1163.3599    
     19000   3341.6909      341651.67      5880.7351     -350.05572      215.54178     -134.51394      1119.5071    
     20000   3190.7762      351767.25      5880.7351     -340.59066      205.80766     -134.783        1156.3669    
     21000   3290.6978      346927.82      5880.7351     -346.37542      212.25268     -134.12275      1139.2642    
     22000   3276.0814      348539.55      5880.7351     -343.83291      211.30991     -132.523        1146.7797    
     23000   3328.188       346520.5       5880.7351     -346.67069      214.67083     -131.99986      1139.892     
     24000   3189.2782      356148.51      5880.7351     -337.97189      205.71103     -132.26086      1174.9703    
     25000   3193.7534      357669.21      5880.7351     -337.28402      205.99969     -131.28433      1181.5285    
     26000   3260.4643      352038.39      5880.7351     -342.16012      210.3026      -131.85752      1160.2876    
     27000   3248.2719      354481.4       5880.7351     -339.84978      209.51618     -130.3336       1170.7785    
     28000   3289.9305      350792.63      5880.7351     -342.98764      212.20319     -130.78445      1156.7881    
     29000   3227.4555      356670.35      5880.7351     -337.40944      208.1735      -129.23594      1179.9106    
     30000   3311.6748      350260.67      5880.7351     -342.51415      213.60571     -128.90843      1156.7116    
     31000   3422.0461      343728.43      5880.7351     -349.10221      220.72475     -128.37746      1133.2662    
     32000   3476.1008      338902.28      5880.7351     -352.77629      224.21133     -128.56496      1115.3645    
     33000   3248.0993      358849.43      5880.7351     -336.62066      209.50504     -127.11561      1190.0292    
     34000   3251.9938      357725.38      5880.7351     -337.47922      209.75624     -127.72298      1185.296     
     35000   3274.4322      355891.85      5880.7351     -338.58907      211.20354     -127.38554      1178.9036    
     36000   3417.1808      346495.67      5880.7351     -346.5117       220.41094     -126.10076      1145.7       
     37000   3372.2633      350739.17      5880.7351     -343.26238      217.51372     -125.74866      1161.6277    
     38000   3275.4304      358991.28      5880.7351     -337.34463      211.26792     -126.07671      1191.5888    
     39000   3392.14        352418.76      5880.7351     -343.29117      218.79578     -124.49539      1169.0459    
     40000   3328.0157      357585.68      5880.7351     -338.10302      214.65971     -123.44331      1189.0629    
     41000   3343.2582      355897.87      5880.7351     -338.7823       215.64287     -123.13942      1183.1718    
     42000   3338.1118      357165.12      5880.7351     -338.36362      215.31092     -123.0527       1187.9099    
     43000   3435.6264      350957.28      5880.7351     -344.51081      221.60069     -122.91012      1165.2668    
     44000   3322.1977      361821.36      5880.7351     -335.71099      214.28445     -121.42654      1206.6266    
     45000   3377.3541      357112.47      5880.7351     -338.08625      217.84208     -120.24417      1190.5252    
     46000   3412.8522      354925.71      5880.7351     -340.99592      220.13174     -120.86418      1181.8787    
     47000   3435.3385      354186.53      5880.7351     -342.62901      221.58213     -121.04689      1178.9829    
     48000   3455.563       352928.01      5880.7351     -342.5467       222.88662     -119.66008      1175.7503    
     49000   3411.6773      358145.76      5880.7351     -338.90264      220.05596     -118.84668      1195.7153    
     50000   3367.3513      361017.37      5880.7351     -336.36036      217.19689     -119.16347      1205.9387    
     51000   3352.4905      363304.63      5880.7351     -334.30087      216.23836     -118.06251      1215.4349    
     52000   3356.8705      364651.99      5880.7351     -333.27098      216.52088     -116.7501       1221.6928    
     53000   3315.1251      367034.71      5880.7351     -330.68234      213.82826     -116.85408      1230.3345    
     54000   3460.8219      357358.36      5880.7351     -339.7914       223.22583     -116.56557      1195.1063    
     55000   3493.4341      355221.58      5880.7351     -341.11285      225.32934     -115.78351      1188.0454    
     56000   3311.2136      370755         5880.7351     -329.70628      213.57597     -116.13031      1244.7135    
     57000   3319.1203      369900.54      5880.7351     -329.38508      214.08595     -115.29913      1242.4084    
     58000   3328.1226      369136.51      5880.7351     -329.23849      214.66661     -114.57188      1240.3313    
     59000   3365.1537      367106.37      5880.7351     -331.95715      217.05515     -114.902        1232.5496    
     60000   3444.0136      360258.34      5880.7351     -336.84174      222.14167     -114.70007      1207.6161    
     61000   3484.9374      358393.43      5880.7351     -339.44686      224.78129     -114.66557      1200.8055    
     62000   3483.0427      359426.12      5880.7351     -337.88627      224.65908     -113.22719      1206.0343    
     63000   3415.8774      365124.65      5880.7351     -333.52496      220.32687     -113.19809      1226.9797    
     64000   3286.3667      375203.18      5880.7351     -325.39235      211.97332     -113.41903      1263.7517    
     65000   3457.3759      363295.03      5880.7351     -335.06744      223.00356     -112.06388      1221.3983    
     66000   3462.8124      363287.5       5880.7351     -335.41513      223.35421     -112.06092      1221.3737    
     67000   3393.7341      368324.55      5880.7351     -330.39623      218.8986      -111.49762      1240.4253    
     68000   3368.0832      371285.28      5880.7351     -328.47735      217.2441      -111.23325      1251.5569    
     69000   3408.2878      368686.27      5880.7351     -329.9229       219.83733     -110.08557      1243.165     
     70000   3661.0903      350629.44      5880.7351     -346.27031      236.1433      -110.12701      1176.8466    
     71000   3462.0107      367024.07      5880.7351     -332.50677      223.30251     -109.20427      1237.9453    
     72000   3597.1125      355405.72      5880.7351     -341.0082       232.01668     -108.99152      1195.5132    
     73000   3561.7011      360432.73      5880.7351     -338.57276      229.73262     -108.84014      1214.1161    
     74000   3492.8232      364912.9       5880.7351     -333.36765      225.28993     -108.07772      1231.3228    
     75000   3440.2656      371149.15      5880.7351     -329.22321      221.89992     -107.32329      1254.9672    
     76000   3577.2794      361032.48      5880.7351     -338.30308      230.73743     -107.56565      1217.592     
     77000   3510.27        367288.66      5880.7351     -332.83001      226.41527     -106.41474      1241.706     
     78000   3578.4889      362646.76      5880.7351     -337.01819      230.81544     -106.20275      1224.88      
     79000   3520.1494      367967.97      5880.7351     -331.55333      227.0525      -104.50084      1246.1133    
     80000   3464.0823      373191.27      5880.7351     -328.57219      223.43612     -105.13607      1264.65      
     81000   3533.1366      368514.14      5880.7351     -331.92012      227.89018     -104.02994      1248.5889    
     82000   3485.5875      372756.32      5880.7351     -328.8203       224.82322     -103.99708      1264.1925    
     83000   3614.374       363006.9       5880.7351     -336.57183      233.13006     -103.44177      1228.9629    
     84000   3539.4359      369513.69      5880.7351     -331.47121      228.29649     -103.17472      1253.1129    
     85000   3541.4541      370003.27      5880.7351     -331.25023      228.42667     -102.82356      1255.261     
     86000   3489.6047      374319.35      5880.7351     -326.64374      225.08234     -101.5614       1272.3652    
     87000   3407.72        380759.38      5880.7351     -321.72706      219.80071     -101.92635      1295.6382    
     88000   3636.1136      367000.2       5880.7351     -335.42928      234.53228     -100.897        1246.1649    
     89000   3458.2222      377754.7       5880.7351     -324.12486      223.05814     -101.06672      1285.4692    
     90000   3438.5118      381681.04      5880.7351     -321.22292      221.78681     -99.436113      1301.5113    
     91000   3605.6748      370070.67      5880.7351     -331.36404      232.56895     -98.795085      1259.5369    
     92000   3565.8502      373671.67      5880.7351     -327.94884      230.00023     -97.948609      1273.6007    
     93000   3597.1825      372368.55      5880.7351     -329.86637      232.02119     -97.845173      1268.9211    
     94000   3647.635       368140.65      5880.7351     -332.16778      235.27542     -96.892354      1254.3556    
     95000   3525.1647      379354.99      5880.7351     -324.33213      227.37599     -96.956143      1295.4536    
     96000   3541.737       378288.98      5880.7351     -324.5462       228.44491     -96.101284      1292.3957    
     97000   3478.4617      384818.75      5880.7351     -319.83546      224.36361     -95.471848      1316.9925    
     98000   3830.9676      359763.5       5880.7351     -341.89645      247.10052     -94.795929      1225.7039    
     99000   3630.7901      375024.98      5880.7351     -328.9035       234.18891     -94.714592      1281.802     
    100000   3551.8669      380603.7       5880.7351     -322.80212      229.0983      -93.703818      1303.2893    
    101000   3649.2831      374535.52      5880.7351     -328.10094      235.38172     -92.719215      1282.0009    
    102000   3615.0546      376622.42      5880.7351     -325.51629      233.17396     -92.342329      1290.0376    
    103000   3586.2431      380823.82      5880.7351     -323.08799      231.31559     -91.772395      1306.0287    
    104000   3616.0753      378838.83      5880.7351     -324.89008      233.23979     -91.650289      1298.8649    
    105000   3689.6447      374309.1       5880.7351     -328.69503      237.98508     -90.709951      1283.1791    
    106000   3600.7572      381848.64      5880.7351     -322.00495      232.25176     -89.753189      1311.8094    
    107000   3512.9563      391349.36      5880.7351     -315.26124      226.58854     -88.672703      1347.762     
    108000   3577.3296      384460.21      5880.7351     -319.69713      230.74066     -88.956464      1322.1919    
    109000   3703.8513      376869.04      5880.7351     -326.06464      238.90142     -87.163218      1296.122     
    110000   3630.895       382810.42      5880.7351     -321.76563      234.19568     -87.56995       1317.5229    
    111000   3755.8286      374735.32      5880.7351     -328.83172      242.25399     -86.577724      1288.8757    
    112000   3577.8152      389295.33      5880.7351     -316.55572      230.77199     -85.783737      1343.1117    
    113000   3813.4183      372546.41      5880.7351     -331.61417      245.96858     -85.645597      1281.7735    
    114000   3726.6468      380970.93      5880.7351     -324.94406      240.37175     -84.572314      1313.7687    
    115000   3649.9705      387324.6       5880.7351     -320.24284      235.42606     -84.816773      1336.8452    
    116000   3652.7144      387515.81      5880.7351     -318.65414      235.60305     -83.051097      1339.3127    
    117000   3879.8738      370457.64      5880.7351     -333.02596      250.25501     -82.770951      1276.9814    
    118000   3572.2613      395125.2       5880.7351     -313.08206      230.41376     -82.668301      1367.6255    
    119000   3736.4103      383323.22      5880.7351     -322.77217      241.0015      -81.770668      1325.2043    
    120000   3675.2227      387630.98      5880.7351     -318.23912      237.05485     -81.184268      1341.6022    
    121000   3697.9569      388185.83      5880.7351     -318.92615      238.52123     -80.404924      1344.4182    
    122000   3675.7828      390559.89      5880.7351     -317.81604      237.09098     -80.725058      1352.8119    
    123000   3725.8901      387525.6       5880.7351     -319.49989      240.32294     -79.176948      1343.2228    
    124000   3681.9308      392261.77      5880.7351     -315.37985      237.48753     -77.892324      1361.8914    
    125000   3661.8605      394110.04      5880.7351     -313.68576      236.19298     -77.492777      1369.0749    
    126000   3643.4974      396603.71      5880.7351     -311.86921      235.00854     -76.860663      1378.86      
    127000   3657.479       396505.72      5880.7351     -312.21996      235.91037     -76.309595      1379.0514    
    128000   3694.8034      395781.67      5880.7351     -314.00576      238.31782     -75.687945      1377.0154    
    129000   3717.4067      394323.46      5880.7351     -314.71571      239.77575     -74.939961      1372.4111    
    130000   3715.9059      393702.56      5880.7351     -314.19134      239.67895     -74.512395      1370.5597    
    131000   3730.6766      395827.71      5880.7351     -313.48698      240.63167     -72.85531       1380.017     
    132000   3761.3309      393517.32      5880.7351     -315.61705      242.6089      -73.008144      1371.384     
    133000   3818.8845      389695.44      5880.7351     -319.0369       246.32115     -72.715742      1357.6483    
    134000   3866.7478      387624.17      5880.7351     -319.78593      249.40838     -70.377555      1352.384     
    135000   3731.0172      398023.31      5880.7351     -311.7773       240.65364     -71.123657      1389.8076    
    136000   3802.0325      393220.19      5880.7351     -315.67772      245.23418     -70.443533      1372.858     
    137000   3841.7175      392025.55      5880.7351     -317.17651      247.7939      -69.382609      1369.534     
    138000   3914.0496      387622.52      5880.7351     -320.86157      252.45938     -68.402185      1354.3533    
    139000   3676.4801      407612.83      5880.7351     -304.97965      237.13596     -67.84369       1428.2855    
    140000   3870.6572      391554.32      5880.7351     -317.07595      249.66053     -67.415414      1369.7716    
    141000   3744.6533      401958.5       5880.7351     -308.33475      241.53318     -66.801571      1408.5736    
    142000   3746.0973      404271.66      5880.7351     -307.32407      241.62632     -65.697756      1418.1678    
    143000   3730.3963      407066.56      5880.7351     -304.51732      240.61359     -63.903729      1430.2204    
    144000   3924.29        393681.9       5880.7351     -317.3955       253.11989     -64.275608      1380.7206    
    145000   3696.4135      410973.29      5880.7351     -302.95874      238.42167     -64.53707       1443.9266    
    146000   3759.5084      407095.52      5880.7351     -305.46416      242.49134     -62.972812      1431.2577    
    147000   3881.3484      399529.15      5880.7351     -312.59357      250.35012     -62.243443      1404.2149    
    148000   3851.0265      403257.93      5880.7351     -309.69697      248.39434     -61.302634      1418.8421    
    149000   3827.2205      404863.69      5880.7351     -307.36256      246.85883     -60.503727      1425.5349    
    150000   3745.8528      411846.1       5880.7351     -300.85688      241.61055     -59.246327      1452.421     
    151000   3823.1548      404058.18      5880.7351     -306.59391      246.59659     -59.997314      1423.0847    
    152000   3906.4629      402498.92      5880.7351     -310.40877      251.97003     -58.438739      1418.9201    
    153000   3849.8175      407533.8       5880.7351     -307.05145      248.31636     -58.735094      1437.104     
    154000   3908.8336      405094.88      5880.7351     -309.10019      252.12294     -56.97725       1429.9099    
    155000   4062.9256      393005.84      5880.7351     -319.06838      262.062       -57.006374      1385.5084    
    156000   3890.8115      406915.94      5880.7351     -306.31696      250.9605      -55.356457      1438.2149    
    157000   3957.5175      402492.24      5880.7351     -311.46078      255.26309     -56.197687      1421.1366    
    158000   4005.2721      399476.43      5880.7351     -312.96297      258.34331     -54.619664      1411.6452    
    159000   3990.966       400979.16      5880.7351     -310.96423      257.42055     -53.543677      1418.2369    
    160000   3957.4038      405864.1       5880.7351     -308.62798      255.25576     -53.372218      1436.3383    
    161000   3963.0475      407371.03      5880.7351     -308.68292      255.61978     -53.063131      1442.1786    
    162000   3844.5193      416482.18      5880.7351     -299.77579      247.97462     -51.801169      1476.8827    
    163000   3871.8704      415268.97      5880.7351     -300.6451       249.73879     -50.906315      1473.3245    
    164000   4028.6742      404107.87      5880.7351     -310.14757      259.85276     -50.294807      1432.9696    
    165000   3957.0664      410991.14      5880.7351     -305.07362      255.23399     -49.839621      1458.6896    
    166000   3957.8846      411280.23      5880.7351     -304.60619      255.28677     -49.319415      1460.2709    
    167000   4037.6262      404657.01      5880.7351     -309.2141       260.43017     -48.783929      1436.4961    
    168000   3741.4676      428990.6       5880.7351     -288.73566      241.3277      -47.407964      1527.1877    
    169000   3882.9217      420909.5       5880.7351     -297.42212      250.4516      -46.97052       1497.9637    
    170000   4055.5204      407411.93      5880.7351     -307.64438      261.58436     -46.060021      1449.3318    
    171000   3943.0549      416973.99      5880.7351     -299.58757      254.33024     -45.257326      1485.2317    
    172000   3881.3742      422207.19      5880.7351     -294.33926      250.35179     -43.98747       1505.7099    
    173000   4186.3612      401582.3       5880.7351     -313.04914      270.0237      -43.025443      1430.9689    
    174000   3820.4747      429587.02      5880.7351     -289.18264      246.42372     -42.758924      1534.0258    
    175000   4052.2106      412589.32      5880.7351     -303.61674      261.37087     -42.24587       1472.1494    
    176000   3957.2968      422459.05      5880.7351     -297.30215      255.24886     -42.05329       1508.5685    
    177000   4166.6802      406185.5       5880.7351     -310.20596      268.75425     -41.451708      1449.4386    
    178000   3928.9627      425517.02      5880.7351     -292.99832      253.42128     -39.577031      1522.2689    
    179000   3873.0002      429737.64      5880.7351     -289.56305      249.81166     -39.75139       1537.5862    
    180000   4063.276       417560.04      5880.7351     -299.80524      262.08461     -37.720631      1494.9195    
    181000   3897.09        429661.5       5880.7351     -288.9475       251.36547     -37.582029      1539.4761    
    182000   4048.6197      419389.59      5880.7351     -298.34078      261.13926     -37.20152       1502.1539    
    183000   3991.121       425773.98      5880.7351     -293.38181      257.43055     -35.951269      1526.8378    
    184000   3934.5266      430975.85      5880.7351     -288.87418      253.78016     -35.09402       1546.7884    
    185000   4293.6908      405239.96      5880.7351     -310.37162      276.94654     -33.42508       1453.9946    
    186000   4203.0252      413725.9       5880.7351     -304.689        271.09854     -33.590456      1484.9766    
    187000   3941.1839      431458.06      5880.7351     -287.89457      254.20956     -33.685008      1549.9673    
    188000   4349.5908      403691.22      5880.7351     -312.75712      280.55214     -32.204983      1449.5301    
    189000   4195.3482      416600.52      5880.7351     -302.43087      270.60337     -31.827501      1497.2907    
    190000   4123.6944      421889.66      5880.7351     -296.73572      265.98164     -30.75408       1517.7778    
    191000   4276.221       412603.02      5880.7351     -306.2529       275.81973     -30.433176      1484.0124    
    192000   4197.1605      420262.97      5880.7351     -300.02778      270.72026     -29.307519      1513.2536    
    193000   4241.6868      417251.67      5880.7351     -302.23981      273.59224     -28.647566      1502.8607    
    194000   4209.8501      420157.89      5880.7351     -300.22767      271.53875     -28.68892       1513.4865    
    195000   4242.0537      418097.68      5880.7351     -300.89856      273.61591     -27.282652      1507.3308    
    196000   4119.0997      429477.72      5880.7351     -291.97936      265.68527     -26.294091      1550.0895    
    197000   4239.8441      421398.38      5880.7351     -298.06411      273.47339     -24.590729      1522.1379    
    198000   4310.2209      416977.4       5880.7351     -302.89878      278.01275     -24.886036      1505.6155    
    199000   4225.8913      425220.18      5880.7351     -296.37416      272.57342     -23.800737      1536.9557    
    200000   4225.9959      425425.27      5880.7351     -296.17351      272.58017     -23.593346      1537.9159    
    201000   4255.7724      424181.84      5880.7351     -297.0619       274.50078     -22.56112       1534.3841    
    202000   4086.9792      438620.49      5880.7351     -284.46987      263.61348     -20.85639       1589.0854    
    203000   4071.3689      441285.94      5880.7351     -282.63587      262.6066      -20.029262      1599.696     
    204000   4267.5956      425679.38      5880.7351     -294.9964       275.26338     -19.733017      1542.7089    
    205000   4173.4788      434816.81      5880.7351     -288.96626      269.19277     -19.773486      1576.207     
    206000   4033.4882      445899.53      5880.7351     -280.17165      260.16326     -20.008388      1616.6509    
    207000   4221.8658      434578.82      5880.7351     -290.5811       272.31377     -18.267325      1576.8397    
    208000   4211.9805      434755.09      5880.7351     -289.21199      271.67617     -17.53582       1578.2182    
    209000   4044.1671      448692.62      5880.7351     -276.83189      260.85206     -15.979829      1630.9314    
    210000   4267.817       432505.66      5880.7351     -291.01567      275.27766     -15.738005      1571.7595    
    211000   4280.1191      432373.06      5880.7351     -290.65136      276.07116     -14.580199      1572.4306    
    212000   4338.3538      429918.01      5880.7351     -293.03524      279.82734     -13.207895      1564.7917    
    213000   4353.5688      429872.37      5880.7351     -293.24533      280.80872     -12.436608      1565.3955    
    214000   4355.7937      431093.75      5880.7351     -293.75393      280.95224     -12.801692      1569.5135    
    215000   4295.3003      436257.95      5880.7351     -288.49025      277.05036     -11.43989       1589.8303    
    216000   4320.4324      436688.68      5880.7351     -289.33945      278.6714      -10.668048      1592.1831    
    217000   4326.2557      436280.89      5880.7351     -288.71472      279.04701     -9.6677112      1591.6867    
    218000   4216.2022      443548.02      5880.7351     -281.03697      271.94847     -9.0885054      1618.9396    
    219000   4099.6955      455165.22      5880.7351     -273.71807      264.43369     -9.2843829      1661.3843    
    220000   4276.9096      443998.89      5880.7351     -282.58813      275.86414     -6.7239882      1622.959     
    221000   4388.7453      436279.3       5880.7351     -289.23435      283.07764     -6.156712       1595.1918    
    222000   4300.0401      445114.84      5880.7351     -282.14063      277.35608     -4.7845516      1628.9945    
    223000   4319.3855      441889.72      5880.7351     -283.86456      278.60388     -5.2606891      1616.6807    
    224000   4150.3364      457358.79      5880.7351     -272.09275      267.70007     -4.3926737      1674.3274    
    225000   4409.5217      437484.41      5880.7351     -288.53386      284.41773     -4.1161316      1601.6557    
    226000   4409.8501      437752.44      5880.7351     -287.43651      284.43891     -2.9975958      1603.758     
    227000   4531.5794      429973.74      5880.7351     -294.13999      292.29055     -1.8494431      1576.3548    
    228000   4196.3189      456700.38      5880.7351     -272.20444      270.66598     -1.5384604      1674.765     
    229000   4423.5097      441527.08      5880.7351     -285.9869       285.31997     -0.6669314      1619.9434    
    230000   4181.4577      460922.34      5880.7351     -269.62179      269.70742      0.085635488    1691.8856    
    231000   4503.2748      437216.47      5880.7351     -290.3468       290.46489      0.11808761     1604.9065    
    232000   4351.0632      449828.64      5880.7351     -278.66998      280.64711      1.9771346      1653.0581    
    233000   4583.3619      432815.2       5880.7351     -294.43685      295.63057      1.1937169      1589.8274    
    234000   4401.9737      448716.12      5880.7351     -279.8529       283.93088      4.077977       1651.0754    
    235000   4347.9393      452655.79      5880.7351     -277.44533      280.44561      3.0002813      1664.4582    
    236000   4468.925       445315.49      5880.7351     -283.26654      288.24929      4.9827569      1639.4983    
    237000   4490.9528      444579.91      5880.7351     -284.04398      289.6701       5.6261263      1637.4418    
    238000   4394.7919      454449.65      5880.7351     -277.19343      283.46765      6.2742194      1674.3164    
    239000   4400.8487      453270.97      5880.7351     -276.57239      283.85832      7.2859225      1671.0018    
    240000   4581.2196      440643.35      5880.7351     -287.4851       295.49238      8.0072804      1625.3739    
    241000   4483.883       450480.42      5880.7351     -279.92424      289.2141       9.2898546      1662.7631    
    242000   4513.1897      448611.93      5880.7351     -280.63236      291.1044       10.472039      1657.0871    
    243000   4585.4326      445431.26      5880.7351     -284.85315      295.76413      10.91097       1645.8515    
    244000   4498.6204      451420.36      5880.7351     -277.30039      290.16467      12.864285      1669.7876    
    245000   4674.8312      438957.63      5880.7351     -288.4567       301.53041      13.073705      1624.253     
    246000   4631.1128      443690.51      5880.7351     -285.39141      298.71054      13.319133      1641.8703    
    247000   4205.0264      476487.81      5880.7351     -258.60652      271.22762      12.621102      1761.5536    
    248000   4621.1781      447238.02      5880.7351     -283.20325      298.06974      14.86649       1656.4386    
    249000   4472.9784      458283.83      5880.7351     -273.20552      288.51074      15.305222      1697.4206    
    250000   4311.9817      471814.45      5880.7351     -261.22211      278.12632      16.904213      1748.6833    
    251000   4347.4106      470068.59      5880.7351     -263.25377      280.41151      17.157746      1742.5287    
    252000   4223.0899      480945.76      5880.7351     -253.94679      272.39273      18.44594       1783.7412    
    253000   4561.9078      457668.94      5880.7351     -274.95218      294.24676      19.294584      1699.1531    
    254000   4220.3384      485300.98      5880.7351     -251.59971      272.21525      20.615544      1801.8965    
    255000   4628.1006      455175.72      5880.7351     -277.25957      298.51625      21.256685      1691.9639    
    256000   4495.5998      466498.11      5880.7351     -268.35744      289.96984      21.612401      1733.8781    
    257000   4637.0582      456875.32      5880.7351     -276.41369      299.09402      22.680333      1699.6259    
    258000   4431.0072      470735.54      5880.7351     -262.52726      285.80357      23.276305      1751.0953    
    259000   4503.9895      466890.64      5880.7351     -266.06896      290.51098      24.442023      1738.1484    
    260000   4539.6135      466963.81      5880.7351     -267.84432      292.80876      24.964431      1738.9394    
    261000   4730.6605      454475.96      5880.7351     -279.6848       305.13144      25.44664       1693.5854    
    262000   4614.3541      461639.62      5880.7351     -271.09728      297.62959      26.532304      1720.965     
    263000   4533.4175      472000.53      5880.7351     -264.3739       292.40911      28.035214      1760.4973    
    264000   4483.4183      474201.03      5880.7351     -261.58737      289.18413      27.596751      1768.1357    
    265000   4418.0973      483224.94      5880.7351     -257.58664      284.97086      27.384223      1801.0452    
    266000   4479.0846      478052.29      5880.7351     -260.29253      288.90459      28.612065      1783.287     
    267000   4644.0128      467629.79      5880.7351     -268.87172      299.5426       30.670877      1747.0903    
    268000   4462.6529      481096.69      5880.7351     -257.2377       287.84474      30.607034      1796.4563    
    269000   4331.7446      491537.84      5880.7351     -248.00441      279.40105      31.396638      1835.5698    
    270000   4671.1682      466412.67      5880.7351     -268.92592      301.29414      32.368221      1744.3203    
    271000   4447.2845      484809.61      5880.7351     -254.14909      286.85347      32.704379      1812.1818    
    272000   4564.5647      476181.14      5880.7351     -260.87014      294.41813      33.547988      1781.3549    
    273000   4509.1196      481893.92      5880.7351     -255.20511      290.84188      35.636766      1804.4122    
    274000   4599.399       478388.8       5880.7351     -261.03023      296.66497      35.634746      1791.5448    
    275000   4641.5528      478578.41      5880.7351     -262.25093      299.38393      37.132995      1793.739     
    276000   4554.6286      483116.38      5880.7351     -256.57074      293.77724      37.206504      1810.469     
    277000   4526.6458      486655.02      5880.7351     -254.92849      291.97233      37.043845      1823.2948    
    278000   4304.6099      504648.42      5880.7351     -239.19738      277.65083      38.453452      1890.7486    
    279000   4617.0504      482151.6       5880.7351     -259.14976      297.8035       38.653739      1808.375     
    280000   4607.2986      484268.05      5880.7351     -256.29418      297.1745       40.880327      1818.37      
    281000   4713.3464      476892.93      5880.7351     -262.55336      304.01467      41.461309      1791.8808    
    282000   4654.4983      483409.15      5880.7351     -256.82744      300.21892      43.391474      1817.7285    
    283000   4525.4842      491617.68      5880.7351     -249.60306      291.89741      42.29435       1846.7606    
    284000   4325.3         508908.69      5880.7351     -235.76533      278.98536      43.22003       1911.1523    
    285000   4504.3528      496954.5       5880.7351     -245.32205      290.53441      45.212368      1869.2672    
    286000   3894.9122      546747.82      5880.7351     -204.84226      251.225        46.382742      2053.2023    
    287000   3875.971       546571.73      5880.7351     -204.28901      250.00328      45.714268      2051.8875    
    288000   3678.9192      564137.09      5880.7351     -190.57778      237.29328      46.715493      2117.3618    
    289000   4006.1954      539731.91      5880.7351     -210.74819      258.40286      47.654666      2028.7226    
    290000   4042.0033      537212.35      5880.7351     -211.59507      260.7125       49.117431      2020.9373    
    291000   4176.4693      527401.75      5880.7351     -220.68875      269.38566      48.696911      1984.5073    
    292000   4075.3882      539042.06      5880.7351     -212.48269      262.86585      50.38316       2028.919     
    293000   4027.7647      542785.56      5880.7351     -209.75005      259.79409      50.044044      2042.3202    
    294000   4043.9203      542147.18      5880.7351     -208.82571      260.83614      52.010436      2041.9435    
    295000   4238.7656      527431.86      5880.7351     -221.65509      273.40382      51.748738      1987.6697    
    296000   3956.1597      551101.44      5880.7351     -201.9181       255.17551      53.257414      2076.0568    
    297000   3882.4553      553946.27      5880.7351     -198.45009      250.42152      51.971429      2085.2126    
    298000   4082.8975      542478.03      5880.7351     -208.84493      263.35021      54.505274      2045.6527    
    299000   3958.8345      553084.39      5880.7351     -200.45918      255.34804      54.888859      2084.9666    
    300000   3942.2559      556045.95      5880.7351     -197.74108      254.27871      56.537628      2097.4856    
    301000   4008.3131      548392.17      5880.7351     -202.79525      258.53945      55.744194      2068.5993    
    302000   4155.5196      542833.9       5880.7351     -210.41107      268.03439      57.623322      2050.077     
    303000   3961.1057      555776.24      5880.7351     -197.12388      255.49453      58.37065       2098.3287    
    304000   4005.306       557208.04      5880.7351     -198.26952      258.34549      60.075972      2105.2894    
    305000   4120.9896      548341.64      5880.7351     -205.12982      265.80718      60.677355      2073.347     
    306000   4240.4329      539596.65      5880.7351     -212.06132      273.51137      61.450049      2042.0215    
    307000   4212.9478      544834.97      5880.7351     -209.2151       271.73855      62.523451      2062.3219    
    308000   4123.5903      549936.78      5880.7351     -203.00155      265.97493      62.973379      2081.4979    
    309000   4090.7574      556485.56      5880.7351     -199.448        263.85717      64.409171      2106.9708    
    310000   4161.4559      552571.4       5880.7351     -204.00959      268.41729      64.407698      2092.6025    
    311000   4083.6631      556697.02      5880.7351     -198.05113      263.39959      65.348455      2108.6862    
    312000   3898.5118      570732.05      5880.7351     -186.26072      251.45718      65.196457      2160.0493    
    313000   4265.8395      545256.93      5880.7351     -208.36292      275.15012      66.787199      2068.1345    
    314000   4176.0966      553028.23      5880.7351     -202.30516      269.36162      67.056463      2096.928     
    315000   4114.0186      559923.79      5880.7351     -197.43205      265.35754      67.925496      2123.107     
    316000   4247.162       547990.93      5880.7351     -205.0046       273.9454       68.9408        2080.3231    
    317000   4109.5584      559711.92      5880.7351     -196.39556      265.06986      68.674292      2123.0781    
    318000   4226.6609      554155.34      5880.7351     -202.19488      272.62306      70.428174      2104.4368    
    319000   4284.983       552599.63      5880.7351     -203.57048      276.38488      72.814398      2101.1128    
    320000   4247.2365      556564.53      5880.7351     -200.41514      273.95021      73.535063      2116.3865    
    321000   4317.3689      550227.33      5880.7351     -204.72014      278.4738       73.753658      2093.3446    
    322000   4319.4157      552985.19      5880.7351     -203.70157      278.60582      74.90425       2104.6179    
    323000   4282.6301      558425.77      5880.7351     -200.22738      276.23312      76.005743      2125.6888    
    324000   4273.6012      561410.21      5880.7351     -196.99258      275.65075      78.658165      2139.2955    
    325000   4319.7325      554323.07      5880.7351     -202.44321      278.62625      76.183046      2110.8073    
    326000   4323.6549      557422.04      5880.7351     -201.64495      278.87925      77.234297      2123.2332    
    327000   4222.8527      563056.69      5880.7351     -194.79739      272.37743      77.580038      2144.2607    
    328000   4177.5368      569357.45      5880.7351     -190.13198      269.45451      79.322534      2169.13      
    329000   4029.0283      580591.53      5880.7351     -180.20573      259.8756       79.669865      2210.7116    
    330000   4372.1431      555247.5       5880.7351     -201.30528      282.00678      80.701506      2118.7188    
    331000   4362.5836      556449.79      5880.7351     -200.5687       281.39019      80.821488      2123.2518    
    332000   4196.2405      574281.82      5880.7351     -187.82453      270.66092      82.836393      2190.7186    
    333000   4376.7364      561452.8       5880.7351     -198.80523      282.30305      83.49782       2144.2915    
    334000   4325.656       565409.61      5880.7351     -194.19029      279.00833      84.818039      2160.135     
    335000   4295.7334      567978.24      5880.7351     -192.82975      277.07829      84.248545      2168.9936    
    336000   4444.713       557056.74      5880.7351     -201.97203      286.6876       84.715564      2129.3737    
    337000   4419.8626      562231.41      5880.7351     -197.89847      285.08473      87.186261      2150.8378    
    338000   4559.3142      550742.08      5880.7351     -206.86645      294.07947      87.213019      2108.6933    
    339000   4303.7038      571155.71      5880.7351     -189.29802      277.59239      88.294369      2184.7022    
    340000   4400.8748      566356.53      5880.7351     -193.79415      283.86         90.065845      2168.8585    
    341000   4397.4803      565830.18      5880.7351     -193.53633      283.64105      90.104722      2166.9654    
    342000   4349.1824      569460.28      5880.7351     -191.45267      280.5258       89.073121      2179.258     
    343000   4382.3697      568668.77      5880.7351     -190.48915      282.66641      92.177255      2179.4569    
    344000   4507.2391      562965.46      5880.7351     -198.19047      290.72058      92.530109      2158.876     
    345000   4426.5128      569416.27      5880.7351     -192.13677      285.51367      93.376905      2183.4002    
    346000   4333.0978      577305.37      5880.7351     -185.06226      279.48833      94.426069      2213.4061    
    347000   4428.9425      573438.1       5880.7351     -189.87095      285.67039      95.799435      2200.5848    
    348000   4545.3504      562294.28      5880.7351     -197.84999      293.17879      95.328801      2159.2111    
    349000   4437.6083      573704.96      5880.7351     -189.76336      286.22934      96.46598       2202.2308    
    350000   4339.849       580463.75      5880.7351     -182.28665      279.92379      97.637135      2228.2099    
    351000   4545.5835      565972.74      5880.7351     -194.73936      293.19383      98.454462      2175.8384    
    352000   4312.0295      583833.35      5880.7351     -179.4088       278.1294       98.720601      2241.6613    
    353000   4389.8863      580344.07      5880.7351     -183.67978      283.15123      99.471449      2229.6049    
    354000   4422.2461      579619.85      5880.7351     -183.6085       285.23847      101.62997      2229.1052    
    355000   4473.8549      577747.7       5880.7351     -185.43089      288.56728      103.13639      2223.74      
    356000   4565.3361      571076.89      5880.7351     -191.52351      294.46789      102.94438      2199.063     
    357000   4409.571       587200.45      5880.7351     -180.01629      284.42091      104.40462      2259.7042    
    358000   4704.5359      563194.64      5880.7351     -197.70091      303.44639      105.74548      2172.9325    
    359000   4626.327       569803.72      5880.7351     -193.66508      298.40185      104.73677      2196.1822    
    360000   4626.8737      570736.77      5880.7351     -192.31426      298.43711      106.12285      2200.993     
    361000   4437.3717      587779.3       5880.7351     -178.69519      286.21408      107.51889      2264.9431    
    362000   4429.5135      586445.84      5880.7351     -177.18866      285.70722      108.51856      2261.0483    
    363000   4638.8576      574588.82      5880.7351     -191.19603      299.21008      108.01406      2217.023     
    364000   4633.9634      574958.61      5880.7351     -190.06916      298.8944       108.82524      2219.1915    
    365000   4395.5244      595513.28      5880.7351     -171.62954      283.5149       111.88536      2297.6969    
    366000   4608.0352      579135.91      5880.7351     -186.08466      297.22201      111.13735      2236.8363    
    367000   4642.9348      579592.2       5880.7351     -187.36079      299.47306      112.11228      2239.486     
    368000   4554.9046      586037.75      5880.7351     -179.99804      293.79504      113.797        2264.8289    
    369000   4562.9533      585644.98      5880.7351     -180.66882      294.31419      113.64537      2263.2356    
    370000   4599.2541      584215.74      5880.7351     -181.85475      296.65563      114.80088      2259.1452    
    371000   4519.9423      591710.61      5880.7351     -175.97112      291.53995      115.56883      2287.4228    
    372000   4781.3881      573979.62      5880.7351     -191.987        308.40342      116.41641      2223.1894    
    373000   4879.5647      568263.23      5880.7351     -198.44451      314.73589      116.29138      2202.0825    
    374000   4644.0931      586621.3       5880.7351     -180.3594       299.54778      119.18837      2272.3622    
    375000   4518.5598      596987.98      5880.7351     -172.84283      291.45078      118.60794      2309.8323    
    376000   4683.695       585310.87      5880.7351     -183.03858      302.10213      119.06355      2267.4275    
    377000   4529.2117      597809.38      5880.7351     -171.10708      292.13783      121.03076      2315.27      
    378000   4378.9594      612065.85      5880.7351     -161.95437      282.44644      120.49207      2367.0592    
    379000   4606.2226      593284.73      5880.7351     -175.85769      297.1051       121.24742      2298.8791    
    380000   4562.4272      601327.94      5880.7351     -168.7333       294.28026      125.54697      2332.701     
    381000   4662.7325      590337.61      5880.7351     -177.30404      300.75003      123.446        2290.2604    
    382000   4651.3298      593862.02      5880.7351     -174.46671      300.01455      125.54785      2305.2985    
    383000   4636.7122      597917.37      5880.7351     -171.51625      299.07171      127.55546      2322.1911    
    384000   4713.8624      593053.83      5880.7351     -177.75761      304.04796      126.29035      2303.0745    
    385000   4581.9586      603441.94      5880.7351     -168.77115      295.54005      126.7689       2341.6823    
    386000   4780.3101      588957.88      5880.7351     -179.61045      308.33388      128.72343      2290.4736    
    387000   4629.3113      605142.66      5880.7351     -168.06408      298.59434      130.53025      2351.6861    
    388000   4550.2452      608639.07      5880.7351     -162.94063      293.49451      130.55388      2364.5432    
    389000   4726.6747      598010.97      5880.7351     -174.26427      304.87436      130.61009      2325.5893    
    390000   4805.2441      589470.98      5880.7351     -178.32561      309.94215      131.61654      2295.25      
    391000   4644.4773      605436.03      5880.7351     -166.48479      299.57256      133.08776      2355.3204    
    392000   4980.4326      581538.14      5880.7351     -186.73841      321.24195      134.50354      2269.0198    
    393000   4692.2391      602128.74      5880.7351     -169.10062      302.65323      133.55261      2343.646     
    394000   4690.5197      605741.34      5880.7351     -167.33859      302.54233      135.20374      2358.557     
    395000   4748.7657      601833.02      5880.7351     -169.97066      306.29925      136.32859      2345.3365    
    396000   4969.333       589210.19      5880.7351     -183.17135      320.52602      137.35467      2300.0309    
    397000   4989.0027      588747.39      5880.7351     -182.67881      321.79472      139.11591      2300.0935    
    398000   4757.3631      608610.16      5880.7351     -165.37451      306.85378      141.47927      2375.3625    
    399000   4775.4555      604310.51      5880.7351     -168.86915      308.02076      139.15161      2357.2531    
    400000   4708.6424      611992.66      5880.7351     -163.0626       303.71126      140.64866      2386.9472    
    401000   4864.9934      599851.63      5880.7351     -170.92809      313.79603      142.86794      2344.6032    
    402000   4697.4257      615554.38      5880.7351     -159.16176      302.98777      143.82601      2403.1977    
    403000   4938.5429      598911.29      5880.7351     -174.85939      318.54003      143.68064      2341.9644    
    404000   4617.1586      624904         5880.7351     -153.12309      297.81048      144.68739      2438.3766    
    405000   4773.7631      612086.93      5880.7351     -162.70278      307.9116       145.20882      2391.8534    
    406000   4964.849       600158.44      5880.7351     -173.20122      320.23679      147.03557      2349.897     
    407000   4851.8725      606704.22      5880.7351     -166.15956      312.94972      146.79016      2373.6776    
    408000   4740.8548      619218.23      5880.7351     -158.3083       305.78898      147.48069      2420.3005    
    409000   4820.226       615652.33      5880.7351     -160.91573      310.90849      149.99277      2409.724     
    410000   4807.9996      616425.28      5880.7351     -161.65111      310.11988      148.46877      2411.0371    
    411000   5153.9485      592075.59      5880.7351     -180.83405      332.43387      151.59982      2324.7934    
    412000   4903.4403      610732.81      5880.7351     -163.69694      316.27588      152.57894      2394.2533    
    413000   4950.4308      607188.86      5880.7351     -166.8707       319.30681      152.4361       2381.1024    
    414000   4886.3021      614632.67      5880.7351     -162.03843      315.17046      153.13202      2409.1206    
    415000   4720.4951      627402.13      5880.7351     -149.32198      304.47577      155.15379      2458.0123    
    416000   5098.4877      600961.33      5880.7351     -173.52645      328.8566       155.33014      2361.1386    
    417000   5107.0511      604024.64      5880.7351     -172.31575      329.40894      157.09319      2374.1454    
    418000   5050.6971      606274.36      5880.7351     -168.40256      325.77406      157.37151      2382.6812    
    419000   5148.7918      605207.97      5880.7351     -173.28265      332.10126      158.81861      2380.2142    
    420000   5008.5938      610553.21      5880.7351     -165.11912      323.05837      157.93925      2398.9543    
    421000   5158.5954      602214.04      5880.7351     -173.48974      332.7336       159.24386      2369.6503    
    422000   5077.8907      610383.16      5880.7351     -166.7564       327.52808      160.77167      2401.1626    
    423000   5238.2689      599364.46      5880.7351     -175.9347       337.8726       161.9379       2361.8851    
    424000   5061.2985      613890.06      5880.7351     -164.37276      326.45787      162.08511      2415.348     
    425000   4913.8292      628654.32      5880.7351     -153.61437      316.94597      163.33161      2470.7862    
    426000   5121.1751      614512.28      5880.7351     -165.90623      330.31995      164.41372      2419.9604    
    427000   5223.3627      605875.68      5880.7351     -171.50589      336.91114      165.40525      2389.2516    
    428000   5189.3984      607249.05      5880.7351     -169.30864      334.72041      165.41177      2394.299     
    429000   5021.3593      623668.18      5880.7351     -156.9885       323.88176      166.89325      2456.0464    
    430000   5093.9886      618084.42      5880.7351     -161.42568      328.5664       167.14072      2435.7989    
    431000   5143.2298      613423.15      5880.7351     -164.57885      331.7425       167.16365      2418.7128    
    432000   4856.5241      639629.65      5880.7351     -143.33938      313.24975      169.91037      2517.6496    
    433000   5278.1363      606971.11      5880.7351     -170.76604      340.44408      169.67804      2397.5451    
    434000   4979.763       633936.89      5880.7351     -149.31934      321.19876      171.87942      2498.7235    
    435000   4955.8107      635281.49      5880.7351     -147.07447      319.65382      172.57935      2504.3588    
    436000   5239.3238      615985.79      5880.7351     -165.24495      337.94064      172.69569      2433.6509    
    437000   5191.1708      618537.04      5880.7351     -160.74421      334.83473      174.09052      2444.41      
    438000   5442.7157      602794.57      5880.7351     -174.96633      351.05958      176.09325      2388.6305    
    439000   5236.9543      615604.55      5880.7351     -162.94673      337.7878       174.84108      2434.3969    
    440000   5187.9831      625309.26      5880.7351     -157.96647      334.62913      176.66266      2471.8393    
    441000   5000.3785      638466.99      5880.7351     -144.62923      322.52847      177.89925      2521.3709    
    442000   5266.3692      619858.34      5880.7351     -160.76838      339.68509      178.91671      2454.086     
    443000   5061.0823      636525.53      5880.7351     -148.11256      326.44392      178.33136      2514.677     
    444000   5297.7096      621410.93      5880.7351     -161.71556      341.70657      179.99101      2460.859     
    445000   5235.9443      626949.87      5880.7351     -155.70483      337.72266      182.01783      2483.2163    
    446000   5098.8578      636198.48      5880.7351     -147.6915       328.88047      181.18897      2516.3342    
    447000   5361.489       619055.28      5880.7351     -162.94804      345.82039      182.87235      2455.094     
    448000   5166.6915      634910.06      5880.7351     -149.7023       333.2558       183.5535       2513.9696    
    449000   5111.782       638461.74      5880.7351     -146.6999       329.71409      183.01419      2526.4666    
    450000   5201.9742      637318.83      5880.7351     -148.24699      335.53156      187.28458      2526.542     
    451000   5009.8707      648753.84      5880.7351     -138.78733      323.14073      184.3534       2565.5826    
    452000   5301.7297      626686.95      5880.7351     -155.65198      341.96587      186.31389      2486.5473    
    453000   5298.7689      630123.92      5880.7351     -154.29146      341.7749       187.48344      2500.3322    
    454000   5198.1262      639249.18      5880.7351     -146.30977      335.28336      188.97359      2535.3163    
    455000   5258.1734      637911.45      5880.7351     -148.17954      339.15646      190.97692      2532.4095    
    456000   5053.7289      652794.93      5880.7351     -135.40836      325.96962      190.56126      2586.6232    
    457000   4971.4472      658922.43      5880.7351     -129.32487      320.66238      191.33751      2609.8902    
    458000   5129.7175      649814.91      5880.7351     -136.61021      330.87094      194.26073      2579.3846    
    459000   5361.3319      635470.22      5880.7351     -152.59718      345.81027      193.21309      2525.6852    
    460000   5317.6344      636405.8       5880.7351     -149.64869      342.99174      193.34304      2529.2492    
    461000   5337.5661      635016.45      5880.7351     -150.02236      344.27735      194.25499      2525.0616    
    462000   5359.0022      637343.15      5880.7351     -150.45933      345.65999      195.20066      2534.5473    
    463000   5365.4649      637721.72      5880.7351     -150.54517      346.07685      195.53168      2536.2679    
    464000   5432.6058      634010.59      5880.7351     -152.78568      350.40749      197.6218       2524.7364    
    465000   5443.6324      632575.12      5880.7351     -152.88001      351.11871      198.2387       2520.0845    
    466000   5152.3414      654748.49      5880.7351     -132.73329      332.33021      199.59692      2602.8293    
    467000   5302.4527      646720.28      5880.7351     -143.17665      342.0125       198.83586      2572.601     
    468000   5321.4413      646357.29      5880.7351     -142.32904      343.23729      200.90825      2573.341     
    469000   5286.7491      649569.41      5880.7351     -139.40096      340.99961      201.59866      2585.8214    
    470000   5273.144       649406.55      5880.7351     -137.83093      340.12207      202.29115      2585.9161    
    471000   5344.496       645702.98      5880.7351     -141.5089       344.72433      203.21544      2573.2466    
    472000   5500.3508      639366.27      5880.7351     -148.87331      354.7771       205.90378      2552.6762    
    473000   5455.0704      644841.82      5880.7351     -145.46048      351.85647      206.39599      2573.2663    
    474000   5346.604       650785.51      5880.7351     -139.05774      344.8603       205.80257      2594.489     
    475000   5288.6177      655207.72      5880.7351     -135.13075      341.12014      205.98939      2610.9073    
    476000   5431.5455      648468.79      5880.7351     -140.97028      350.3391       209.36881      2589.5518    
    477000   5464.5828      646299.06      5880.7351     -143.64249      352.47003      208.82754      2581.0466    
    478000   5452.9142      645847.38      5880.7351     -142.93001      351.71739      208.78738      2579.3485    
    479000   5497.109       643395.48      5880.7351     -145.60458      354.568        208.96341      2570.5249    
    480000   5811.9639      622172.76      5880.7351     -164.02863      374.8764       210.84777      2494.512     
    481000   5459.8429      650195.41      5880.7351     -139.40166      352.1643       212.76265      2599.2831    
    482000   5404.7149      656691.95      5880.7351     -135.30683      348.6085       213.30167      2623.6674    
    483000   5474.1555      651893.81      5880.7351     -139.14226      353.08748      213.94522      2606.6996    
    484000   5598.7195      644149.67      5880.7351     -146.90297      361.12195      214.21898      2578.5487    
    485000   5386.1943      657626.04      5880.7351     -134.17133      347.41391      213.24258      2627.0369    
    486000   5463.2976      653794.15      5880.7351     -137.22133      352.38713      215.16581      2614.8953    
    487000   5474.9267      656144.06      5880.7351     -136.39363      353.13722      216.74359      2625.0984    
    488000   5563.913       649277.15      5880.7351     -141.44745      358.87691      217.42946      2600.5795    
    489000   5609.3921      646196         5880.7351     -142.49465      361.81035      219.31569      2591.1564    
    490000   5390.4697      666844.44      5880.7351     -127.58965      347.68968      220.10002      2667.7302    
    491000   5439.7585      658339.49      5880.7351     -131.9224       350.86884      218.94644      2635.3594    
    492000   5547.611       656165.2       5880.7351     -137.42744      357.82541      220.39798      2628.8303    
    493000   5489.1822      660818.88      5880.7351     -131.90437      354.05671      222.15234      2647.6659    
    494000   5539.7469      659538.99      5880.7351     -134.55348      357.31817      222.76469      2643.5804    
    495000   5669.9921      648957.88      5880.7351     -143.3791       365.7191       222.33999      2604.3181    
    496000   5624.9831      653946.77      5880.7351     -138.90061      362.81598      223.91537      2624.2051    
    497000   5525.6646      661406.87      5880.7351     -132.02703      356.40986      224.38282      2652.0546    
    498000   5748.3279      645974.26      5880.7351     -144.04127      370.77182      226.73055      2597.7574    
    499000   5639.1331      657164.98      5880.7351     -136.8082       363.72867      226.92047      2639.0225    
    500000   5237.0428      689338.18      5880.7351     -111.00813      337.79351      226.78538      2756.9781    
    501000   5635.0181      659798.08      5880.7351     -134.37882      363.46324      229.08443      2650.8512    
    502000   5736.8862      650934.9       5880.7351     -141.39903      370.03382      228.63479      2617.8695    
    503000   5728.5792      652694.59      5880.7351     -141.90632      369.49801      227.59169      2623.2853    
    504000   5590.18        665064.45      5880.7351     -131.00469      360.57115      229.56647      2670.6632    
    505000   5653.2874      660716.45      5880.7351     -134.4112       364.64163      230.23043      2655.368     
    506000   5839.1397      648561.41      5880.7351     -145.14422      376.62925      231.48503      2612.0079    
    507000   5662.7377      660834.6       5880.7351     -133.75014      365.25118      231.50104      2657.0723    
    508000   5671.1078      660064.16      5880.7351     -133.43704      365.79106      232.35402      2655.0974    
    509000   5548.9211      672864.89      5880.7351     -124.60333      357.90992      233.30659      2703.0346    
    510000   5772.0785      659733.4       5880.7351     -136.53379      372.30375      235.76996      2657.2993    
    511000   5785.105       659344.09      5880.7351     -136.52592      373.14397      236.61805      2656.7184    
    512000   5735.0225      662668.58      5880.7351     -133.20105      369.91361      236.71256      2669.0153    
    513000   5545.5642      675758.03      5880.7351     -120.9072       357.6934       236.7862       2717.1334    
    514000   5853.0781      657086.28      5880.7351     -138.86261      377.52829      238.66568      2650.4788    
    515000   5595.8046      676012.47      5880.7351     -122.49489      360.93394      238.43905      2719.7202    
    516000   5540.746       681637.31      5880.7351     -116.767        357.38262      240.61562      2742.5425    
    517000   5396.6612      694462.4       5880.7351     -108.16439      348.08903      239.92464      2788.9256    
    518000   5791.0335      664202.19      5880.7351     -131.5322       373.52636      241.99416      2679.926     
    519000   5764.2293      668920.57      5880.7351     -129.65392      371.79747      242.14356      2697.3941    
    520000   5740.0431      670944.38      5880.7351     -125.9114       370.23744      244.32604      2707.0049    
    521000   5617.1444      680076.99      5880.7351     -119.81431      362.31038      242.49607      2738.6959    
    522000   5951.3224      654302.57      5880.7351     -140.23579      383.86513      243.62934      2645.225     
    523000   5762.0456      670235.62      5880.7351     -125.94931      371.65662      245.70731      2705.7847    
    524000   5787.049       670804.39      5880.7351     -126.95748      373.26936      246.31188      2708.4769    
    525000   5666.2072      679977.89      5880.7351     -118.19771      365.47497      247.27725      2743.1133    
    526000   5477.0403      694045.93      5880.7351     -105.64563      353.27355      247.62792      2795.1002    
    527000   5658.5737      682992.61      5880.7351     -117.22298      364.9826       247.75962      2754.6611    
    528000   5830.7396      671319.19      5880.7351     -127.97134      376.08744      248.1161       2712.1707    
    529000   5837.8421      672211.58      5880.7351     -126.80987      376.54556      249.73568      2717.0658    
    530000   5779.6764      677445.62      5880.7351     -122.85653      372.79382      249.93729      2736.4787    
    531000   5624.1646      689739.5       5880.7351     -111.65         362.76318      251.11319      2782.7789    
    532000   6005.5302      661016.61      5880.7351     -136.46644      387.36158      250.89514      2677.1344    
    533000   5714.0416      682969.8       5880.7351     -116.9749       368.56032      251.58543      2758.4032    
    534000   5514.9774      700553.39      5880.7351     -103.87879      355.72052      251.84173      2823.1995    
    535000   5685.4921      690732.55      5880.7351     -111.78875      366.71886      254.9301       2790.2408    
    536000   5972.1974      671670.29      5880.7351     -129.41253      385.21158      255.79905      2721.1423    
    537000   5981.9714      668864.49      5880.7351     -131.01536      385.84201      254.82666      2709.8713    
    538000   5943.0929      672144.36      5880.7351     -126.66201      383.33432      256.67231      2723.7556    
    539000   5501.0937      704820.56      5880.7351     -99.055731      354.82501      255.76928      2842.7895    
    540000   5836.7239      682745.55      5880.7351     -117.9822       376.47343      258.49123      2764.4859    
    541000   5886.3893      680939.71      5880.7351     -121.34109      379.67689      258.3358       2757.7022    
    542000   6115.5002      662984.84      5880.7351     -135.18074      394.45473      259.27399      2692.7376    
    543000   5975.4978      678062.25      5880.7351     -124.22787      385.42446      261.1966       2750.0013    
    544000   6125.3494      665252.11      5880.7351     -133.79311      395.09001      261.2969       2703.0825    
    545000   5792.9245      692919.9       5880.7351     -111.89596      373.64834      261.75237      2805.0916    
    546000   5607.0359      704847.94      5880.7351     -99.954116      361.65837      261.70425      2848.825     
    547000   5887.6196      687201.95      5880.7351     -116.17342      379.75624      263.58282      2785.9345    
    548000   5774.3848      695135.12      5880.7351     -109.57555      372.45251      262.87696      2814.3471    
    549000   6152.6934      668333.04      5880.7351     -133.23438      396.85372      263.61935      2716.7134    
    550000   6058.3041      673751.54      5880.7351     -126.0823       390.76554      264.68323      2737.6657    
    551000   5985.0732      682894.13      5880.7351     -120.95669      386.04208      265.08539      2771.6254    
    552000   5911.7076      687403.57      5880.7351     -115.3402       381.30994      265.96974      2789.0615    
    553000   5952.6219      684628.12      5880.7351     -117.44035      383.94895      266.5086       2779.4131    
    554000   5916.9199      689152.35      5880.7351     -114.55853      381.64614      267.08761      2796.5982    
    555000   6202.3234      670609.13      5880.7351     -131.68842      400.0549       268.36648      2729.8148    
    556000   6050.9676      680861.57      5880.7351     -121.63992      390.29233      268.6524       2767.732     
    557000   6079.5596      682171.79      5880.7351     -122.14714      392.13654      269.98939      2773.8781    
    558000   6104.3966      679194.57      5880.7351     -123.57043      393.73854      270.16811      2763.129     
    559000   5629.6359      713826.31      5880.7351     -91.886622      363.11609      271.22947      2891.305     
    560000   6082.9344      683851.05      5880.7351     -120.25389      392.35421      272.10032      2782.1527    
    561000   5922.3391      697134.61      5880.7351     -109.85322      381.99568      272.14246      2830.9517    
    562000   5867.8308      700619.61      5880.7351     -105.15603      378.47985      273.32382      2844.9246    
    563000   5817.51        705004.12      5880.7351     -101.49832      375.23412      273.7358       2861.4298    
    564000   6303.2315      671972.3       5880.7351     -131.51906      406.56355      275.0445       2741.4963    
    565000   6054.1728      689803.8       5880.7351     -115.69013      390.49906      274.80893      2806.7107    
    566000   6224.3417      680604.69      5880.7351     -124.60952      401.4751       276.86558      2775.0023    
    567000   6015.4198      695952.88      5880.7351     -111.93392      387.99946      276.06554      2830.5373    
    568000   5994.7486      696450.35      5880.7351     -108.47248      386.66615      278.19367      2834.4913    
    569000   6026.7327      694879.16      5880.7351     -111.03456      388.72916      277.6946       2828.2253    
    570000   6006.933       700385.44      5880.7351     -107.94825      387.45206      279.50381      2850.2451    
    571000   6000.992       697782.38      5880.7351     -109.11664      387.06886      277.95222      2839.1391    
    572000   5953.4054      702180.86      5880.7351     -104.04462      383.99948      279.95487      2857.2862    
    573000   6235.7816      681740.15      5880.7351     -122.88933      402.21298      279.32365      2781.628     
    574000   5991.2602      700963.09      5880.7351     -104.99762      386.44115      281.44353      2854.3051    
    575000   6190.8327      688651.33      5880.7351     -117.75436      399.31374      281.55938      2809.231     
    576000   5876.2533      712654.11      5880.7351     -97.326555      379.02311      281.69656      2897.4696    
    577000   6127.754       692200.74      5880.7351     -113.65524      395.24511      281.58987      2822.2895    
    578000   6153.5211      694577.52      5880.7351     -113.74317      396.90711      283.16394      2832.5874    
    579000   6268.8813      686631.88      5880.7351     -121.54727      404.34794      282.80066      2803.06      
    580000   5923.2236      709224.26      5880.7351     -97.597717      382.05273      284.45502      2887.6389    
    581000   5926.3484      711602.06      5880.7351     -97.228907      382.25429      285.02538      2896.9369    
    582000   6077.9139      702374.73      5880.7351     -105.56083      392.03039      286.46956      2864.5125    
    583000   6195.0894      694292.31      5880.7351     -113.56509      399.5883       286.02321      2834.3999    
    584000   5940.7357      713559.36      5880.7351     -96.29253       383.18228      286.88975      2905.9854    
    585000   6118.6622      700202.63      5880.7351     -108.01932      394.65868      286.63937      2856.7096    
    586000   5984.5416      712080.41      5880.7351     -97.316102      386.0078       288.69169      2902.3589    
    587000   5976.7595      712768.85      5880.7351     -96.157693      385.50584      289.34815      2905.5423    
    588000   6231.9609      699440.09      5880.7351     -111.30451      401.96654      290.66203      2857.9334    
    589000   6034.373       707320.85      5880.7351     -98.95369       389.22196      290.26827      2886.4657    
    590000   6062.2311      708637.96      5880.7351     -100.10889      391.01883      290.90994      2891.9418    
    591000   6059.0828      710321.1       5880.7351     -99.943056      390.81576      290.87271      2898.0825    
    592000   5976.8067      717625.56      5880.7351     -93.506809      385.50889      292.00208      2926.0226    
    593000   6174.1678      705607.31      5880.7351     -104.96905      398.23884      293.26979      2883.1778    
    594000   6201.8716      704200.56      5880.7351     -105.80097      400.02575      294.22478      2878.9693    
    595000   5986.1133      718765.55      5880.7351     -91.980763      386.10917      294.12841      2932.3333    
    596000   6276.2884      697360.46      5880.7351     -110.49926      404.8257       294.32644      2853.9646    
    597000   6438.0092      685735.06      5880.7351     -121.31184      415.25682      293.94498      2810.9125    
    598000   6248.4317      702681.01      5880.7351     -106.94621      403.02892      296.08272      2875.2498    
    599000   6260.1603      701015.93      5880.7351     -108.5445       403.78542      295.24092      2868.2964    
    600000   6018.1226      720005.04      5880.7351     -93.050803      388.17379      295.12299      2937.8774    
    601000   6303.4474      702692.03      5880.7351     -109.78865      406.57748      296.78882      2875.9964    
    602000   6247.1431      703833.64      5880.7351     -106.49307      402.94581      296.45273      2879.8505    
    603000   5985.181       726490.42      5880.7351     -89.097436      386.04904      296.9516       2963.5103    
    604000   6376.8839      694492.49      5880.7351     -113.80822      411.31419      297.50598      2846.6174    
    605000   6500.0523      690104.47      5880.7351     -119.62035      419.25866      299.6383       2832.6436    
    606000   6052.4842      722557.42      5880.7351     -92.554918      390.39015      297.83523      2949.958     
    607000   6395.8594      699128.97      5880.7351     -112.55991      412.53812      299.97822      2866.1077    
    608000   6127.4569      720547.65      5880.7351     -92.558952      395.22595      302.66699      2947.413     
    609000   6082.7499      722283.57      5880.7351     -90.844023      392.34231      301.49828      2952.6159    
    610000   6306.2534      707404.62      5880.7351     -105.33708      406.75847      301.42139      2897.9263    
    611000   6298.8498      705783         5880.7351     -105.59113      406.28093      300.68979      2891.2426    
    612000   6107.1646      725782.72      5880.7351     -90.291069      393.91708      303.62601      2967.5871    
    613000   6215.3236      716628.42      5880.7351     -98.667606      400.89342      302.22582      2932.5864    
    614000   6352.8848      705751.55      5880.7351     -107.03868      409.76623      302.72755      2893.165     
    615000   5990.582       732260.53      5880.7351     -83.735162      386.39741      302.66225      2990.4       
    616000   6375.0983      705006.13      5880.7351     -106.43614      411.19902      304.76288      2892.4642    
    617000   6306.3951      713639.56      5880.7351     -100.76526      406.76761      306.00235      2925.3924    
    618000   6046.6997      727948.29      5880.7351     -85.097053      390.01704      304.91999      2976.8298    
    619000   6146.9376      724896.4       5880.7351     -89.859743      396.48247      306.62272      2967.3306    
    620000   6190.5922      720846.89      5880.7351     -93.93614       399.29822      305.36208      2951.2064    
    621000   6104.3724      725976.07      5880.7351     -86.504132      393.73698      307.23285      2971.9037    
    622000   6290.3793      713738.72      5880.7351     -99.588009      405.73458      306.14657      2925.9006    
    623000   6357.0697      711566.03      5880.7351     -102.08587      410.03616      307.95029      2919.7295    
    624000   6334.2176      711597.99      5880.7351     -101.02409      408.56218      307.53809      2919.4347    
    625000   6449.4141      703096.26      5880.7351     -108.57394      415.99245      307.41851      2888.1097    
    626000   6275.2718      718460.72      5880.7351     -94.872467      404.76013      309.88766      2946.9736    
    627000   6011.0238      737910.06      5880.7351     -78.852321      387.71592      308.8636       3017.3377    
    628000   6246.0449      720957.9       5880.7351     -93.79595       402.87497      309.07902      2955.3308    
    629000   6397.0732      712359.1       5880.7351     -102.97807      412.61642      309.63835      2924.3285    
    630000   6590.2021      696949.37      5880.7351     -112.86956      425.07339      312.20383      2870.3331    
    631000   6338.1294      714356.75      5880.7351     -98.289943      408.81449      310.52455      2932.5471    
    632000   6194.5583      724999.75      5880.7351     -89.78412       399.55404      309.76992      2970.8572    
    633000   6544.8659      701905.94      5880.7351     -110.62284      422.14917      311.52633      2887.8485    
    634000   6222.4276      723556.69      5880.7351     -90.175379      401.35164      311.17626      2966.9668    
    635000   6293.8627      719751.78      5880.7351     -94.71923       405.95926      311.24003      2953.0648    
    636000   6718.3331      692061.35      5880.7351     -121.17682      433.33794      312.16112      2852.3491    
    637000   6532.8071      705499.74      5880.7351     -108.57827      421.37137      312.7931       2902.3062    
    638000   6169.7998      730721.72      5880.7351     -84.752163      397.9571       313.20494      2995.2945    
    639000   6482.5517      708041.71      5880.7351     -104.81624      418.12985      313.31362      2912.157     
    640000   6568.0262      701981.53      5880.7351     -111.08414      423.64303      312.55888      2889.1586    
    641000   6575.1048      706405.42      5880.7351     -109.18096      424.0996       314.91864      2907.756     
    642000   6407.4079      715430.42      5880.7351     -98.141651      413.28301      315.14136      2941.1047    
    643000   6322.3642      724193.98      5880.7351     -90.841568      407.79762      316.95606      2975.0858    
    644000   6201.3907      731334.61      5880.7351     -85.188952      399.99474      314.80578      2999.1449    
    645000   6539.4454      707641         5880.7351     -106.15147      421.79954      315.64807      2913.0206    
    646000   6641.0941      700884.28      5880.7351     -111.20676      428.35597      317.1492       2889.7215    
    647000   6190.8953      735106.6       5880.7351     -83.864439      399.31778      315.45334      3013.6375    
    648000   6455.0562      715130.28      5880.7351     -99.753191      416.35637      316.60318      2941.4649    
    649000   6838.8566      687193.52      5880.7351     -124.13119      441.11181      316.98062      2839.3014    
    650000   6449.6343      715180.29      5880.7351     -98.915269      416.00665      317.09139      2942.1366    
    651000   6395.9232      719044.8       5880.7351     -94.914067      412.54224      317.62818      2956.858     
    652000   6460.2218      714433.42      5880.7351     -99.530747      416.68955      317.1588       2939.4627    
    653000   6298.1617      729134.72      5880.7351     -87.597457      406.23655      318.63909      2994.9036    
    654000   6319.4552      727898.11      5880.7351     -89.083804      407.60999      318.52619      2990.2518    
    655000   6226.6457      737791.35      5880.7351     -82.899085      401.62371      318.72462      3026.763     
    656000   6387.2576      723316.15      5880.7351     -93.665938      411.9833       318.31736      2973.225     
    657000   6337.5274      728799.58      5880.7351     -88.939197      408.77566      319.83647      2994.8709    
    658000   6546.9344      712237.49      5880.7351     -103.33622      422.28258      318.94637      2933.1902    
    659000   6337.8971      730659.49      5880.7351     -88.408578      408.79951      320.39093      3002.2521    
    660000   6301.784       732990.02      5880.7351     -85.528368      406.47019      320.94182      3011.3571    
    661000   6340.8398      726999.11      5880.7351     -90.515294      408.98932      318.47403      2986.8999    
    662000   6580.3842      709944.08      5880.7351     -103.26824      424.44013      321.17188      2926.9978    
    663000   6628.5341      711903.12      5880.7351     -104.97162      427.54583      322.57422      2935.5907    
    664000   6193.9625      741654.94      5880.7351     -77.783835      399.51561      321.73178      3043.9514    
    665000   6645.7535      706273.7       5880.7351     -108.34538      428.6565       320.31112      2912.6651    
    666000   6500.3248      717539.4       5880.7351     -98.235635      419.27623      321.04059      2954.7449    
    667000   6640.0383      709819.41      5880.7351     -106.22385      428.28786      322.06401      2927.4324    
[...]
    841000   6265.2401      679934.7       5880.7351     -123.98385      404.11308      280.12922      2775.8067    
    842000   5996.5297      698335.18      5880.7351     -107.9038       386.78104      278.87724      2842.0931    
    843000   6014.5903      697413.51      5880.7351     -109.00506      387.94596      278.9409       2838.7738    
    844000   5791.2138      715042.55      5880.7351     -95.399075      373.538        278.13892      2902.6786    
    845000   5845.4024      711346.76      5880.7351     -98.078951      377.03321      278.95425      2889.9287    
    846000   5966.4881      698135.35      5880.7351     -107.7697       384.84333      277.07363      2839.556     
    847000   6057.8951      690767.53      5880.7351     -113.93623      390.73915      276.80293      2812.242     
    848000   5909.5931      699810.19      5880.7351     -106.35071      381.17356      274.82285      2843.4527    
    849000   6011.3576      694236.71      5880.7351     -110.84353      387.73745      276.89391      2825.0665    
    850000   6190.1085      681073.2       5880.7351     -123.76435      399.26703      275.50268      2775.359     
    851000   5802.1053      704561.52      5880.7351     -99.996258      374.2405       274.24424      2860.3137    
    852000   5584.6595      722486.66      5880.7351     -85.628642      360.21507      274.58643      2926.4495    
    853000   5868.833       701717.5       5880.7351     -104.61147      378.5445       273.93303      2849.5636    
    854000   5810.3357      707335.99      5880.7351     -100.31506      374.77137      274.45631      2870.7093    
    855000   6219.8417      677521.67      5880.7351     -127.95692      401.18484      273.22792      2760.0485    
    856000   6187.2146      676817.91      5880.7351     -126.21807      399.08037      272.86229      2757.0997    
    857000   5868.1502      697973.16      5880.7351     -107.84416      378.50046      270.6563       2832.5434    
    858000   6037.855       686605.35      5880.7351     -118.62461      389.44655      270.82194      2790.9839    
    859000   6088.0907      682368.31      5880.7351     -121.91591      392.6868       270.77089      2775.3809    
    860000   6231.044       671043.62      5880.7351     -129.7604       401.9074       272.14701      2735.1901    
    861000   6193.806       670672.22      5880.7351     -130.10654      399.50552      269.39898      2731.0789    
    862000   5968.6183      689851.22      5880.7351     -114.95738      384.98073      270.02335      2802.0991    
    863000   6059.9332      681106.53      5880.7351     -121.69358      390.87062      269.17704      2769.1557    
    864000   5638.9203      710675.48      5880.7351     -95.776         363.71494      267.93894      2876.4495    
    865000   6060.3722      679864.99      5880.7351     -122.13286      390.89893      268.76607      2764.1877    
    866000   5860.4265      694935.18      5880.7351     -111.18311      378.00227      266.81917      2817.5555    
    867000   5957.6982      686283.42      5880.7351     -116.47565      384.27637      267.80072      2786.781     
    868000   5996.201       684660.31      5880.7351     -118.54188      386.75983      268.21796      2781.2407    
    869000   5897.0963      689123.84      5880.7351     -115.45         380.3675       264.91751      2794.3234    
    870000   5976.7246      682082.07      5880.7351     -119.46491      385.50359      266.03869      2769.598     
    871000   6043.6917      675671.57      5880.7351     -125.31837      389.82302      264.50465      2744.5345    
    872000   6229.9104      668018.59      5880.7351     -135.11126      401.83428      266.72302      2718.6629    
    873000   5658.2057      702743.83      5880.7351     -101.40312      364.95886      263.55574      2842.9534    
    874000   5736.7045      698510.78      5880.7351     -107.01784      370.0221       263.00426      2826.8646    
    875000   5921.633       686426.22      5880.7351     -118.29995      381.95014      263.65019      2783.1546    
    876000   5906.8626      688195.41      5880.7351     -116.17758      380.99744      264.81986      2790.818     
    877000   5829.2239      690749.27      5880.7351     -112.81243      375.98967      263.17724      2798.5493    
    878000   5830.2033      692937.43      5880.7351     -111.33976      376.05285      264.71309      2808.1167    
    879000   5986.7433      677980.09      5880.7351     -123.91719      386.14981      262.23262      2750.7358    
    880000   5949.6514      678959.19      5880.7351     -121.92945      383.75735      261.8279       2753.9248    
    881000   5975.2227      678688.32      5880.7351     -123.77408      385.40672      261.63264      2752.7354    
    882000   5810.2894      689320.56      5880.7351     -112.86992      374.76839      261.89846      2792.0265    
    883000   5862.216       686524.11      5880.7351     -116.96231      378.1177       261.15539      2781.0191    
    884000   5941.3404      677174.29      5880.7351     -123.93716      383.22128      259.28413      2744.8297    
    885000   5876.9769      683410.78      5880.7351     -119.54779      379.06979      259.522        2767.9583    
    886000   6042.9834      670905.7       5880.7351     -130.22906      389.77734      259.54828      2722.0851    
    887000   5897.4819      680818.84      5880.7351     -121.83744      380.39237      258.55493      2757.4777    
    888000   5889.945       680887.69      5880.7351     -121.47533      379.90624      258.43091      2757.6064    
    889000   5792.7247      687219.86      5880.7351     -114.66894      373.63545      258.96651      2781.384     
    890000   5868.9894      681181.45      5880.7351     -119.8125       378.55459      258.74209      2758.9958    
    891000   5616.0562      700434.21      5880.7351     -104.20669      362.24019      258.03349      2828.9538    
    892000   5991.7966      672259.91      5880.7351     -128.89192      386.47575      257.58383      2725.0913    
    893000   5977.7728      670897.76      5880.7351     -128.50104      385.5712       257.07016      2719.5779    
    894000   5779.2897      685881.9       5880.7351     -116.85771      372.76888      255.91117      2773.4177    
    895000   5484.2118      706687.32      5880.7351     -96.361231      353.73611      257.37488      2851.247     
    896000   5725.0807      687474.68      5880.7351     -114.73994      369.27236      254.53241      2777.8852    
    897000   5712.8606      690083.25      5880.7351     -112.72966      368.48415      255.75449      2788.6819    
    898000   5523.6077      703093.84      5880.7351     -100.17094      356.27718      256.10625      2836.7886    
    899000   5892.7644      677145.38      5880.7351     -123.86232      380.08809      256.22577      2741.6652    
    900000   5462.2627      702651.61      5880.7351     -98.457899      352.32038      253.86248      2832.9216    
    901000   5873.8044      675989.97      5880.7351     -125.01422      378.86515      253.85094      2735.0494    
    902000   5829.959       680072.1       5880.7351     -121.53592      376.03709      254.50117      2750.683     
    903000   5979.5953      668881.07      5880.7351     -130.49431      385.68876      255.19445      2710.3       
    904000   5590.6733      692811.89      5880.7351     -108.49512      360.60297      252.10785      2795.0506    
    905000   5766.208       681806.59      5880.7351     -119.19844      371.9251       252.72666      2755.2749    
    906000   5728.4031      683281.44      5880.7351     -116.16569      369.48666      253.32096      2761.2826    
    907000   5679.1108      684174.66      5880.7351     -113.52056      366.30726      252.7867       2764.0268    
    908000   5959.3837      666951.49      5880.7351     -131.18642      384.38509      253.19867      2701.2218    
    909000   5933.9672      667619.43      5880.7351     -131.37826      382.74571      251.36745      2701.8422    
    910000   5681.9576      683466.56      5880.7351     -114.92643      366.49088      251.56446      2760.2055    
    911000   5677.6402      689027.15      5880.7351     -115.17803      366.21241      251.03438      2780.0854    
    912000   6010.8023      662207.77      5880.7351     -136.97076      387.70163      250.73087      2681.3423    
    913000   5893.0758      669539         5880.7351     -131.22154      380.10818      248.88663      2706.4071    
    914000   5704.2967      681646.19      5880.7351     -117.96634      367.93177      249.96543      2751.9249    
    915000   5992.5294      660233.48      5880.7351     -138.13315      386.52301      248.38987      2671.7547    
    916000   5898.9992      668083.27      5880.7351     -129.82616      380.49024      250.66408      2702.8413    
    917000   5870.2066      671080.01      5880.7351     -128.48227      378.6331       250.15083      2713.3275    
    918000   5632.6812      688331.63      5880.7351     -114.06526      363.31251      249.24725      2775.7454    
    919000   5887.3737      665645.15      5880.7351     -131.42729      379.74039      248.3131       2691.5413    
    920000   5638.0356      684987.68      5880.7351     -114.84274      363.65788      248.81514      2763.0394    
    921000   5704.2585      680817.33      5880.7351     -118.86363      367.92931      249.06568      2747.9829    
    922000   5760.0513      674953.07      5880.7351     -123.56895      371.52799      247.95903      2725.3517    
    923000   5585.2973      686648.34      5880.7351     -112.78856      360.25621      247.46765      2767.7874    
    924000   5545.8423      691187.95      5880.7351     -111.11824      357.71134      246.5931       2783.5753    
    925000   5438.9884      697986.99      5880.7351     -104.44009      350.81917      246.37908      2808.3169    
    926000   5894.4493      665975.46      5880.7351     -132.20788      380.19677      247.98889      2692.4295    
    927000   5831.2019      669493.83      5880.7351     -129.82158      376.11726      246.29568      2703.6503    
    928000   5943.2026      658790.24      5880.7351     -137.50844      383.3414       245.83295      2663.9004    
    929000   5681.1272      678624.47      5880.7351     -121.60685      366.43732      244.83046      2735.6988    
    930000   5641.7818      682500.88      5880.7351     -118.04932      363.89951      245.85018      2750.9468    
    931000   5918.3621      661238         5880.7351     -135.85422      381.73917      245.88495      2672.9369    
    932000   5743.1857      670700.72      5880.7351     -125.63679      370.44014      244.80335      2706.5878    
    933000   5617.2962      682811.83      5880.7351     -117.50996      362.32017      244.81021      2751.0482    
    934000   5695.4119      675824.38      5880.7351     -123.42328      367.3587       243.93542      2724.5262    
    935000   5906.4858      660984.92      5880.7351     -135.84172      380.97313      245.13141      2671.2544    
    936000   5669.849       679188.25      5880.7351     -120.9091       365.70986      244.80077      2737.7385    
    937000   5616.6198      680787.1       5880.7351     -119.24257      362.27654      243.03397      2741.8402    
    938000   5758.3157      669663.92      5880.7351     -126.88287      371.41604      244.53317      2702.5121    
    939000   5734.1055      672609.19      5880.7351     -126.21315      369.85446      243.64131      2712.4308    
    940000   5603.9905      682380.7       5880.7351     -119.09719      361.46194      242.36474      2747.0202    
    941000   5516.1905      686584.01      5880.7351     -113.98666      355.79877      241.81211      2761.8957    
    942000   5797.5817      666478.04      5880.7351     -131.13877      373.94873      242.80996      2689.0953    
    943000   5566.1201      684324.7       5880.7351     -116.04641      359.01927      242.97286      2754.7637    
    944000   5343.1844      698533.63      5880.7351     -103.16708      344.63973      241.47266      2805.4169    
    945000   5833.1122      662331.91      5880.7351     -134.59584      376.24048      241.64464      2672.7117    
    946000   5751.1036      668624.63      5880.7351     -128.18529      370.95085      242.76556      2696.9298    
    947000   5904.7718      657810.3       5880.7351     -139.19882      380.86258      241.66376      2656.1344    
    948000   5867.3908      658810.26      5880.7351     -137.5244       378.45147      240.92707      2659.068     
    949000   5608.3847      678091.54      5880.7351     -120.87903      361.74537      240.86634      2729.7786    
    950000   5722.6078      668934.93      5880.7351     -128.39003      369.11285      240.72282      2696.0261    
    951000   5553.5284      684550.91      5880.7351     -115.88026      358.2071       242.32684      2754.948     
    952000   5692.1205      670240.57      5880.7351     -127.72743      367.1464       239.41897      2699.5145    
    953000   5797.4155      660265.31      5880.7351     -133.31342      373.93801      240.62459      2664.1063    
    954000   5774.8556      665494.92      5880.7351     -131.23022      372.48288      241.25266      2683.9295    
    955000   5919.0511      651615.5       5880.7351     -142.03121      381.7836       239.75239      2631.4853    
    956000   5691.3123      672760.1       5880.7351     -127.34636      367.09427      239.74791      2709.0913    
    957000   5690.0271      672559.89      5880.7351     -125.83352      367.01137      241.17785      2709.7864    
    958000   5554.4451      680145.57      5880.7351     -118.4808       358.26622      239.78542      2736.2369    
    959000   5446.4637      690902.46      5880.7351     -110.38356      351.30134      240.91778      2776.8521    
    960000   5608.9183      677424.72      5880.7351     -122.9651       361.77979      238.81469      2725.2794    
    961000   5701.8738      670247.07      5880.7351     -127.86955      367.77549      239.90594      2700.0253    
    962000   5730.8839      666518.76      5880.7351     -130.64834      369.64667      238.99833      2685.4331    
    963000   5533.4979      680957.56      5880.7351     -118.32565      356.91511      238.58946      2738.0213    
    964000   5582.2096      677471.49      5880.7351     -121.22871      360.05705      238.82834      2725.4647    
    965000   5654.1265      670925.98      5880.7351     -124.74633      364.69575      239.94942      2702.5607    
    966000   5845.8975      657570.27      5880.7351     -139.13966      377.06514      237.92548      2651.5151    
    967000   5654.3459      671865.79      5880.7351     -125.19416      364.7099       239.51575      2705.5766    
    968000   5684.0379      669310.85      5880.7351     -128.34711      366.62506      238.27795      2694.961     
    969000   5657.3129      673498.14      5880.7351     -125.59466      364.90128      239.30662      2711.359     
    970000   5516.5266      682021.83      5880.7351     -116.34438      355.82045      239.47607      2742.8143    
    971000   5652.0657      670150.13      5880.7351     -126.91168      364.56283      237.65115      2697.4147    
    972000   5823.7204      658377.61      5880.7351     -138.50031      375.6347       237.13438      2653.6873    
    973000   5917.3485      653130.45      5880.7351     -142.31251      381.67378      239.36127      2636.6547    
    974000   5736.5112      667425.15      5880.7351     -131.39604      370.00963      238.61359      2688.3752    
    975000   5525.6229      680174.51      5880.7351     -118.41781      356.40717      237.98936      2734.5471    
    976000   6021.1347      645336.37      5880.7351     -149.9129       388.36808      238.45518      2607.1407    
    977000   5822.9989      659217.31      5880.7351     -137.31789      375.58816      238.27026      2657.9053    
    978000   5719.9034      662460.61      5880.7351     -130.86645      368.93841      238.07196      2669.6114    
    979000   6040.6642      642015.49      5880.7351     -151.34185      389.62775      238.28589      2594.7822    
    980000   5705.2919      666748.18      5880.7351     -130.7325       367.99596      237.26346      2684.5403    
    981000   5609.6117      671758.76      5880.7351     -124.55629      361.82451      237.26822      2702.9362    
    982000   5542.0377      677452.31      5880.7351     -119.83561      357.46594      237.63033      2724.1963    
    983000   5606.3455      673841.04      5880.7351     -125.38998      361.61384      236.22386      2709.5348    
    984000   5581.8967      675750.13      5880.7351     -121.79162      360.03687      238.24525      2718.5634    
    985000   5746.1267      665271.08      5880.7351     -132.32853      370.62984      238.30132      2680.1565    
    986000   5570.1845      675156.7       5880.7351     -122.53073      359.28142      236.75069      2714.8907    
    987000   5808.7424      658090.68      5880.7351     -137.22797      374.6686       237.44063      2652.9404    
    988000   5813.3022      659670.67      5880.7351     -136.30361      374.96271      238.65911      2659.9582    
    989000   5698.2784      666225.69      5880.7351     -129.63634      367.54359      237.90725      2683.2663    
    990000   5486.7035      683768.99      5880.7351     -115.40925      353.89683      238.48758      2748.2387    
    991000   5725.8634      663961.35      5880.7351     -133.42082      369.32284      235.90202      2672.9499    
    992000   5499.9289      680988.55      5880.7351     -117.89025      354.74988      236.85963      2736.4053    
    993000   5784.7185      660373.4       5880.7351     -135.81094      373.11904      237.30811      2661.1865    
    994000   5638.6616      673144.12      5880.7351     -125.55155      363.69825      238.1467       2708.8996    
    995000   5362.1957      690550.26      5880.7351     -109.53176      345.86598      236.33422      2770.9758    
    996000   5682.9849      664955.91      5880.7351     -129.83405      366.55714      236.72309      2677.4215    
    997000   5720.7136      666054.89      5880.7351     -133.10681      368.99068      235.88387      2680.616     
    998000   5652.4478      668548.99      5880.7351     -128.35203      364.58747      236.23545      2690.1221    
    999000   5478.0088      681405.72      5880.7351     -116.61711      353.33602      236.71891      2737.7957    
   1000000   5795.4807      658497.29      5880.7351     -137.1751       373.81321      236.63812      2653.6303    
Loop time of 128.14 on 8 procs for 1000000 steps with 500 atoms

Performance: 674.264 ns/day, 0.036 hours/ns, 7803.984 timesteps/s
44.9% CPU use with 8 MPI tasks x 1 OpenMP threads

MPI task timing breakdown:
Section |  min time  |  avg time  |  max time  |%varavg| %total
---------------------------------------------------------------
Pair    | 8.9069     | 9.1355     | 9.228      |   3.1 |  7.13
Neigh   | 3.5311     | 3.5719     | 3.5988     |   1.1 |  2.79
Comm    | 80.207     | 84.659     | 88.965     |  28.0 | 66.07
Output  | 1.1219     | 1.1816     | 1.2503     |   3.6 |  0.92
Modify  | 22.441     | 26.49      | 30.916     |  48.7 | 20.67
Other   |            | 3.102      |            |       |  2.42

Nlocal:           62.5 ave          64 max          60 min
Histogram: 1 0 1 0 0 2 0 1 0 3
Nghost:          638.5 ave         654 max         621 min
Histogram: 1 0 0 2 1 0 2 1 0 1
Neighs:         1914.5 ave        1998 max        1808 min
Histogram: 1 0 0 1 2 1 0 0 2 1
FullNghs:         3829 ave        3920 max        3690 min
Histogram: 1 1 0 0 1 1 0 1 0 3

Total # of neighbors = 30632
Ave neighs/atom = 61.264
Neighbor list builds = 50000
Dangerous builds not checked





Total wall time: 0:02:08
