ITEM: TIMESTEP
0
ITEM: NUMBER OF ATOMS
792
ITEM: BOX BOUNDS pp pp pp
-1.4146829077868901e+00 2.1414682907786798e+01
-1.4146829077868901e+00 2.1414682907786798e+01
-1.4146829077868901e+00 2.1414682907786798e+01
ITEM: ATOMS id type xs ys zs
540 1 0.0186341 0.172064 0.116518
315 1 0.141135 0.200986 0.0919635
431 1 0.205532 0.097229 0.12267
518 1 0.182764 0.0915462 0.219904
333 1 0.130337 0.0937131 0.0116359
125 1 0.23045 0.16237 0.0436416
550 1 0.106582 0.153651 0.218851
460 1 0.0457096 0.236728 0.0333361
770 2 0.0937862 0.0744553 0.112423
226 1 0.031438 0.0419924 0.0469769
3 1 0.0862382 0.0471171 0.234257
90 1 0.185982 0.227755 0.191307
66 1 0.40104 0.066895 0.0426322
56 1 0.35707 0.11339 0.194382
201 1 0.26862 0.155098 0.17142
680 2 0.443995 0.104176 0.130786
252 1 0.369112 0.182828 0.122137
511 1 0.396787 0.0115144 0.217446
118 1 0.271607 0.0230725 0.153313
205 1 0.44794 0.193273 0.206378
748 2 0.274365 0.246479 0.137813
24 1 0.478352 0.0840811 0.242492
136 1 0.299963 0.0617739 0.0579483
264 1 0.362407 0.17308 0.0291014
421 1 0.454164 0.188796 0.0545236
399 1 0.497167 0.0902938 0.030662
52 1 0.0779711 0.260891 0.226002
416 1 0.0864604 0.37275 0.191238
552 1 0.178302 0.338574 0.147003
458 1 0.117533 0.297164 0.0695991
507 1 0.244845 0.331127 0.0296414
410 1 0.248827 0.395244 0.225016
707 2 0.157792 0.430926 0.216405
599 1 0.0675061 0.426101 0.0183104
651 2 0.142784 0.410382 0.0924873
95 1 0.0206762 0.439764 0.165769
627 1 0.2149 0.490024 0.155011
77 1 0.15902 0.495096 0.0499907
443 1 0.199226 0.253204 0.0128578
13 1 0.488333 0.436429 0.069283
270 1 0.407568 0.392131 0.121493
553 1 0.32215 0.471299 0.162118
690 2 0.254435 0.439645 0.0611125
313 1 0.30378 0.361516 0.143945
395 1 0.443252 0.280803 0.113154
791 2 0.334699 0.265852 0.20651
46 1 0.489344 0.315787 0.191106
737 2 0.359657 0.271997 0.0748829
299 1 0.459512 0.410109 0.197348
584 1 0.424491 0.488385 0.151504
57 1 0.0544547 0.189053 0.446278
658 2 0.0167316 0.0454827 0.377771
214 1 0.0412885 0.15022 0.309938
755 2 0.0830257 0.11553 0.415295
335 1 0.228647 0.0996632 0.358448
675 2 0.130918 0.0872662 0.323446
412 1 0.170811 0.073306 0.445896
435 1 0.149221 0.18995 0.403248
394 1 0.220098 0.188907 0.273889
361 1 0.131612 0.203385 0.313615
668 2 0.28609 0.00686591 0.339314
725 2 0.447349 0.0125291 0.416609
765 2 0.299748 0.0688237 0.260169
347 1 0.390953 0.0793228 0.340464
8 1 0.352032 0.170625 0.272363
131 1 0.410126 0.0981361 0.436183
758 2 0.441161 0.192208 0.305792
271 1 0.305735 0.0865775 0.456601
60 1 0.272694 0.191515 0.401416
523 1 0.391941 0.201387 0.412561
47 1 0.493469 0.0879888 0.354087
377 1 0.0302606 0.360128 0.292579
338 1 0.0734166 0.273279 0.337314
22 1 0.153267 0.318386 0.277168
596 1 0.0707272 0.306782 0.441787
691 2 0.0120365 0.439217 0.42756
133 1 0.249976 0.356578 0.464266
374 1 0.0758472 0.48906 0.33011
598 1 0.0826101 0.387661 0.35785
533 1 0.158412 0.361017 0.438833
253 1 0.187437 0.258603 0.478025
387 1 0.230567 0.297598 0.380308
588 1 0.199639 0.45166 0.353933
164 1 0.159505 0.452485 0.486572
334 1 0.474019 0.39024 0.46869
499 1 0.436597 0.289803 0.27609
179 1 0.303465 0.435161 0.350839
524 1 0.452307 0.257686 0.494241
104 1 0.436763 0.422705 0.348617
375 1 0.345378 0.394877 0.257819
506 1 0.458306 0.317474 0.382434
290 1 0.320325 0.272831 0.462298
342 1 0.252937 0.293858 0.267536
427 1 0.329977 0.273824 0.32981
89 1 0.374165 0.455781 0.422946
106 1 0.361633 0.366022 0.39124
80 1 0.356727 0.392333 0.495573
504 1 0.451585 0.48203 0.48779
618 1 0.108938 0.249006 0.540079
724 2 0.191825 0.232836 0.608952
312 1 0.103312 0.0197446 0.507224
403 1 0.222009 0.154671 0.525286
434 1 0.0479213 0.125294 0.618932
648 1 0.249841 0.0307787 0.612761
405 1 0.142501 0.00918209 0.749076
130 1 0.138064 0.13761 0.659167
729 2 0.149395 0.0735292 0.596609
564 1 0.109269 0.136632 0.510444
782 2 0.000291652 0.246683 0.611595
539 1 0.139913 0.248917 0.696619
144 1 0.22394 0.0783229 0.696668
689 2 0.0672751 0.0149765 0.629137
138 1 0.0537488 0.172858 0.705776
591 1 0.0308959 0.0890473 0.530492
329 1 0.234741 0.0278585 0.510282
325 1 0.456875 0.175528 0.717501
768 2 0.251287 0.181907 0.73249
659 2 0.275501 0.143149 0.642371
169 1 0.422425 0.16692 0.608573
486 1 0.398091 0.0824093 0.675496
505 1 0.288766 0.247319 0.555634
142 1 0.416169 0.0691536 0.539296
143 1 0.338291 0.110251 0.572708
243 1 0.381624 0.17293 0.506791
477 1 0.491798 0.0719309 0.710901
728 2 0.162507 0.46921 0.689059
109 1 0.0960557 0.301678 0.619702
61 1 0.00639505 0.344612 0.555784
441 1 0.0410168 0.453881 0.531722
171 1 0.230245 0.410281 0.626759
757 2 0.076711 0.360368 0.73682
86 1 0.0539084 0.432942 0.649088
206 1 0.15732 0.352021 0.677997
624 1 0.0199048 0.281092 0.739175
222 1 0.190604 0.326946 0.569511
79 1 0.104092 0.364329 0.528578
202 1 0.168185 0.467468 0.582702
204 1 0.0822038 0.471036 0.742495
126 1 0.477413 0.276476 0.603932
273 1 0.397657 0.276394 0.682715
766 2 0.27212 0.274913 0.654067
777 2 0.461755 0.371182 0.636126
629 1 0.320491 0.336892 0.578241
269 1 0.293901 0.375248 0.698772
475 1 0.324286 0.268257 0.744975
111 1 0.403462 0.454496 0.721745
481 1 0.39088 0.269931 0.560239
380 1 0.275286 0.467138 0.563305
780 2 0.181327 0.215535 0.810572
497 1 0.0161269 0.126443 0.988551
65 1 0.239435 0.187426 0.939962
54 1 0.22179 0.12078 0.863553
340 1 0.18407 0.0242526 0.92988
311 1 0.132183 0.169631 0.945492
18 1 0.178495 0.114592 0.777958
249 1 0.0316972 0.15806 0.885596
779 2 0.101678 0.0416773 0.867772
662 2 0.228012 0.0124562 0.823797
376 1 0.0661521 0.0934859 0.763888
192 1 0.354676 0.164228 0.76687
30 1 0.323362 0.128618 0.919831
666 2 0.311814 0.0841587 0.814246
419 1 0.463045 0.200162 0.929156
474 1 0.40978 0.0916167 0.918339
671 2 0.430777 0.0604222 0.82662
775 2 0.388102 0.168541 0.849646
75 1 0.278434 0.212388 0.835861
470 1 0.477757 0.00595825 0.966777
304 1 0.177661 0.421166 0.776647
790 2 0.0981439 0.268581 0.834562
450 1 0.140597 0.362639 0.86188
590 1 0.0570558 0.252203 0.933128
502 1 0.178974 0.253957 0.89491
297 1 0.0474297 0.361855 0.898207
105 1 0.20035 0.302806 0.758341
521 1 0.0195644 0.332589 0.997969
81 1 0.137883 0.468924 0.919443
210 1 0.0807056 0.451974 0.845457
99 1 0.235173 0.343544 0.860489
635 1 0.241103 0.473833 0.856253
742 2 0.143248 0.341586 0.959106
464 1 0.481903 0.299496 0.992345
471 1 0.469652 0.423083 0.951395
14 1 0.399501 0.477774 0.91838
51 1 0.472204 0.425012 0.85718
424 1 0.433916 0.264563 0.80584
266 1 0.328389 0.457707 0.779987
163 1 0.354876 0.396837 0.893308
139 1 0.405747 0.494561 0.823198
168 1 0.319736 0.270963 0.979967
476 1 0.340786 0.285168 0.866409
493 1 0.358296 0.406127 0.999515
123 1 0.25958 0.398575 0.946977
558 1 0.381573 0.361201 0.768676
232 1 0.434081 0.340599 0.924233
614 1 0.106225 0.672756 0.221276
207 1 0.0677104 0.539632 0.226705
217 1 0.0291106 0.519594 0.0850956
166 1 0.135525 0.59 0.0809078
623 1 0.216423 0.590136 0.180546
370 1 0.139253 0.698243 0.100522
639 1 0.0329581 0.638939 0.041648
739 2 0.0464792 0.627051 0.146678
386 1 0.0478209 0.732996 0.0785242
296 1 0.117953 0.53102 0.143653
203 1 0.209444 0.710926 0.202855
694 2 0.327152 0.733423 0.192708
461 1 0.49541 0.585157 0.12776
616 1 0.278756 0.664255 0.118837
735 2 0.345234 0.568122 0.158061
580 1 0.381454 0.640176 0.225805
491 1 0.40977 0.656121 0.0989791
187 1 0.33341 0.610902 0.0252097
258 1 0.373749 0.515869 0.0598227
378 1 0.43902 0.709224 0.249798
70 1 0.359135 0.743351 0.0988499
606 1 0.471689 0.711848 0.0200643
64 1 0.480996 0.621359 0.0358639
600 1 0.263707 0.561898 0.0706214
158 1 0.12317 0.766227 0.215242
21 1 0.183656 0.983479 0.16046
557 1 0.0754207 0.906517 0.0294927
368 1 0.0064167 0.880444 0.110582
372 1 0.0971955 0.879218 0.157685
642 1 0.0748813 0.976605 0.163107
603 1 0.126383 0.979731 0.0433589
785 2 0.154191 0.801356 0.117082
776 2 0.185795 0.862814 0.237064
309 1 0.0143115 0.814429 0.19433
152 1 0.161486 0.89776 0.0771423
446 1 0.0329455 0.925944 0.236389
531 1 0.228738 0.762035 0.0466741
664 2 0.363231 0.908784 0.0422274
209 1 0.455449 0.80263 0.227203
492 1 0.377038 0.817208 0.154029
160 1 0.365741 0.999775 0.118416
82 1 0.297604 0.834215 0.0830587
738 2 0.257536 0.77702 0.150444
702 2 0.414574 0.923443 0.147893
1 1 0.450278 0.862368 0.0681813
625 1 0.313522 0.949996 0.21293
472 1 0.439826 0.769595 0.0981494
448 1 0.263595 0.953425 0.05756
485 1 0.490209 0.965146 0.188477
352 1 0.499944 0.79175 0.00210898
721 2 0.0717399 0.621516 0.341741
9 1 0.153806 0.650002 0.431021
322 1 0.114861 0.550057 0.410947
63 1 0.033935 0.53423 0.475975
726 2 0.205554 0.501996 0.265331
637 1 0.201587 0.573691 0.343481
774 2 0.0633048 0.689481 0.435287
632 1 0.163803 0.665039 0.309084
592 1 0.473146 0.535196 0.327677
73 1 0.349808 0.673567 0.317302
736 2 0.273338 0.600381 0.269144
241 1 0.254089 0.685315 0.48009
789 2 0.264408 0.675421 0.374022
644 1 0.389045 0.556924 0.400376
316 1 0.433189 0.644846 0.339516
722 2 0.446263 0.613103 0.455576
153 1 0.325172 0.615252 0.439666
551 1 0.304921 0.545672 0.35282
281 1 0.363533 0.704579 0.439254
538 1 0.480388 0.710521 0.407876
438 1 0.3751 0.50658 0.265731
753 2 0.277525 0.51513 0.442577
647 1 0.0466518 0.800074 0.409551
698 2 0.00577008 0.880998 0.36353
688 2 0.195583 0.988848 0.260132
100 1 0.117806 0.773175 0.472091
393 1 0.111379 0.873211 0.404459
321 1 0.0556609 0.948641 0.459875
275 1 0.125385 0.750887 0.340709
720 2 0.228159 0.766737 0.433243
561 1 0.116128 0.95131 0.300316
97 1 0.0565134 0.835885 0.274342
542 1 0.196605 0.861069 0.349701
654 2 0.187947 0.971522 0.395374
223 1 0.346491 0.990955 0.453237
526 1 0.387449 0.827286 0.285769
452 1 0.407747 0.773834 0.391015
537 1 0.421549 0.944282 0.278674
43 1 0.294199 0.89374 0.431305
285 1 0.275272 0.813536 0.352287
512 1 0.315037 0.816618 0.47944
50 1 0.284553 0.909207 0.301655
585 1 0.254349 0.771393 0.263203
604 1 0.398058 0.926466 0.364447
68 1 0.469083 0.848771 0.329585
4 1 0.186812 0.677156 0.65234
172 1 0.0780975 0.577351 0.663569
732 2 0.225978 0.58449 0.69207
244 1 0.0889911 0.686851 0.674105
165 1 0.137601 0.561638 0.554308
719 2 0.0325776 0.533411 0.58633
708 2 0.164679 0.661889 0.531302
272 1 0.0661366 0.650388 0.578053
408 1 0.231936 0.579202 0.505224
87 1 0.251799 0.546306 0.589901
522 1 0.355737 0.558305 0.678791
451 1 0.418799 0.509875 0.615326
567 1 0.468853 0.678978 0.653038
248 1 0.425694 0.597248 0.556745
360 1 0.368127 0.516334 0.510149
318 1 0.33067 0.620453 0.541064
112 1 0.405603 0.695045 0.547646
733 2 0.488329 0.584375 0.65884
261 1 0.340464 0.649998 0.65875
653 2 0.407187 0.691195 0.739229
294 1 0.483162 0.50629 0.721778
42 1 0.242009 0.76994 0.560696
140 1 0.244774 0.766582 0.661558
159 1 0.149433 0.91255 0.501422
184 1 0.194446 0.936398 0.589736
532 1 0.1212 0.848688 0.569088
198 1 0.0747252 0.825752 0.674634
115 1 0.213085 0.847835 0.506697
38 1 0.16487 0.766022 0.606017
402 1 0.14951 0.922492 0.692164
456 1 0.176109 0.810413 0.709695
704 2 0.019527 0.769325 0.57648
137 1 0.0056134 0.963856 0.69972
216 1 0.242081 0.958054 0.718544
787 2 0.0458276 0.845118 0.505322
319 1 0.416595 0.79171 0.532391
389 1 0.4872 0.770611 0.702757
302 1 0.250912 0.850968 0.638308
621 1 0.297665 0.930647 0.531153
282 1 0.322532 0.890193 0.700933
366 1 0.450895 0.974514 0.675152
324 1 0.36598 0.764385 0.660799
633 1 0.421498 0.897905 0.746636
710 2 0.324936 0.840897 0.572231
233 1 0.447849 0.981177 0.562354
91 1 0.432879 0.85202 0.64893
727 2 0.415508 0.897924 0.508744
432 1 0.356629 0.979108 0.621934
10 1 0.27783 0.81433 0.74659
94 1 0.201396 0.540586 0.913355
687 2 0.098261 0.71521 0.998565
530 1 0.00638341 0.69976 0.853086
183 1 0.127294 0.612764 0.981544
566 1 0.154251 0.705757 0.762326
655 2 0.149449 0.524832 0.791063
298 1 0.0832845 0.572391 0.858685
479 1 0.0548226 0.641235 0.91305
288 1 0.178505 0.71401 0.928951
406 1 0.0546427 0.647792 0.769855
260 1 0.229137 0.651384 0.992744
242 1 0.182892 0.64639 0.853318
498 1 0.0632695 0.533158 0.986573
744 2 0.499122 0.576902 0.912941
695 2 0.462082 0.582317 0.785756
92 1 0.261115 0.64523 0.784114
354 1 0.315125 0.730119 0.989275
740 2 0.285681 0.660134 0.898596
69 1 0.34795 0.575593 0.917327
289 1 0.354045 0.590155 0.781782
362 1 0.39395 0.661308 0.939548
628 1 0.427425 0.678249 0.842461
176 1 0.262355 0.556228 0.790224
213 1 0.332418 0.746322 0.840629
71 1 0.27273 0.507183 0.982183
560 1 0.494334 0.681991 0.893621
177 1 0.467659 0.515512 0.995994
383 1 0.0624236 0.769438 0.758217
369 1 0.0527428 0.75961 0.914731
96 1 0.0351426 0.961064 0.848057
355 1 0.145609 0.934259 0.945313
301 1 0.181221 0.894949 0.776316
607 1 0.129049 0.775623 0.832774
48 1 0.187681 0.859737 0.992405
174 1 0.207646 0.906875 0.869414
113 1 0.081253 0.853091 0.802295
714 2 0.237053 0.7523 0.82374
384 1 0.0428806 0.973531 0.947962
404 1 0.132986 0.829007 0.916309
455 1 0.392912 0.850853 0.852023
711 2 0.486666 0.894663 0.830812
786 2 0.415547 0.756438 0.891063
559 1 0.304826 0.925902 0.833863
665 2 0.298345 0.974301 0.963006
626 1 0.478641 0.759345 0.816768
444 1 0.299968 0.827906 0.986726
769 2 0.402841 0.79485 0.982314
717 2 0.253251 0.796089 0.912073
246 1 0.463307 0.901717 0.964135
151 1 0.357476 0.905321 0.927819
612 1 0.37762 0.986203 0.767986
692 2 0.359135 0.998626 0.882842
788 2 0.645857 0.03188 0.156662
146 1 0.59801 0.136773 0.062742
110 1 0.634572 0.14654 0.159766
587 1 0.540741 0.074548 0.126366
194 1 0.56742 0.206032 0.196218
649 2 0.621199 0.22995 0.0929213
563 1 0.74877 0.145291 0.137632
716 2 0.738478 0.238427 0.0859875
173 1 0.666145 0.0483767 0.0624139
792 2 0.689997 0.0977641 0.231207
327 1 0.731992 0.206751 0.238819
129 1 0.577761 0.0212327 0.234139
141 1 0.936496 0.112415 0.0670503
35 1 0.771488 0.101949 0.0260909
517 1 0.829151 0.104822 0.212096
357 1 0.896079 0.181668 0.161617
44 1 0.886981 0.0239268 0.193476
676 2 0.991305 0.0131239 0.158159
577 1 0.796564 0.0220865 0.173322
613 1 0.857193 0.189758 0.0397318
759 2 0.848147 0.114605 0.115319
773 2 0.910613 0.0280128 0.0153232
188 1 0.985611 0.178095 0.211584
638 1 0.69794 0.417393 0.026955
597 1 0.632742 0.485383 0.105128
339 1 0.540286 0.260482 0.0444715
545 1 0.65673 0.369803 0.124707
541 1 0.74377 0.476716 0.0998686
186 1 0.595626 0.303965 0.159904
67 1 0.686545 0.396946 0.242718
640 1 0.728655 0.30942 0.195419
495 1 0.529063 0.477748 0.173527
544 1 0.61266 0.48312 0.226485
547 1 0.557869 0.357356 0.0613904
571 1 0.938867 0.479564 0.110688
307 1 0.915394 0.307041 0.0277021
615 1 0.92637 0.403468 0.207755
784 2 0.997484 0.328234 0.182534
37 1 0.891994 0.350703 0.147209
634 1 0.904346 0.295778 0.237581
741 2 0.977746 0.397848 0.0822068
310 1 0.84133 0.272622 0.134047
349 1 0.766078 0.359121 0.112195
351 1 0.793118 0.390414 0.209858
437 1 0.817445 0.289936 0.0364575
23 1 0.839458 0.472198 0.158507
6 1 0.864132 0.407321 0.0664716
197 1 0.750102 0.483299 0.207553
32 1 0.984018 0.259357 0.10236
783 2 0.954479 0.48616 0.00480707
536 1 0.64075 0.175877 0.2775
2 1 0.740716 0.21209 0.342579
483 1 0.545232 0.079338 0.464038
466 1 0.537034 0.178602 0.31778
392 1 0.592887 0.137117 0.426325
569 1 0.716648 0.135116 0.440978
641 1 0.59286 0.0269941 0.375955
262 1 0.598886 0.0989012 0.301572
331 1 0.652544 0.219158 0.452495
93 1 0.741812 0.120104 0.327896
645 1 0.683204 0.0504267 0.378393
135 1 0.656713 0.0273889 0.463809
677 2 0.975649 0.097503 0.437363
195 1 0.947471 0.143879 0.353433
167 1 0.957048 0.207034 0.415281
381 1 0.781958 0.0342614 0.276957
396 1 0.87568 0.0765552 0.308908
116 1 0.968508 0.060902 0.267579
454 1 0.918018 0.00735561 0.38867
501 1 0.914703 0.241615 0.308676
611 1 0.974823 0.0208844 0.484453
752 2 0.828336 0.128068 0.407202
660 2 0.787343 0.0505226 0.393977
422 1 0.827379 0.173123 0.291438
200 1 0.869859 0.194304 0.468225
182 1 0.67323 0.479159 0.32858
102 1 0.51756 0.347682 0.301185
397 1 0.62167 0.323883 0.254456
420 1 0.74955 0.493346 0.457287
620 1 0.699672 0.388511 0.366573
379 1 0.748572 0.356562 0.46549
231 1 0.646227 0.453 0.470015
239 1 0.558202 0.250766 0.416567
101 1 0.561653 0.393607 0.395852
255 1 0.535594 0.321913 0.497646
528 1 0.53708 0.455798 0.287481
510 1 0.644608 0.294057 0.371882
250 1 0.647895 0.333318 0.464242
761 2 0.846321 0.480057 0.484949
371 1 0.920768 0.391874 0.415618
681 2 0.917699 0.301966 0.478687
656 2 0.870497 0.387165 0.306281
150 1 0.757427 0.315287 0.302999
576 1 0.753276 0.440205 0.307293
306 1 0.977854 0.304114 0.378859
496 1 0.851215 0.306143 0.403089
19 1 0.972256 0.426208 0.337706
274 1 0.795469 0.409282 0.395481
59 1 0.893374 0.490793 0.400103
191 1 0.785059 0.252991 0.493881
373 1 0.624556 0.0919432 0.643301
76 1 0.514811 0.128411 0.604543
103 1 0.669755 0.134858 0.528736
212 1 0.643443 0.193325 0.627516
280 1 0.606271 0.0302648 0.547094
439 1 0.701158 0.16883 0.710041
730 2 0.729635 0.151374 0.605398
440 1 0.744038 0.0660554 0.676401
478 1 0.532482 0.0367647 0.629394
548 1 0.551091 0.206764 0.730641
145 1 0.742204 0.0500658 0.534514
218 1 0.536781 0.19129 0.528592
85 1 0.975684 0.0619887 0.699117
320 1 0.76255 0.248572 0.64279
17 1 0.959548 0.152426 0.650952
336 1 0.949559 0.0537539 0.585629
433 1 0.840485 0.154536 0.662933
411 1 0.847262 0.0307774 0.540866
254 1 0.86738 0.222357 0.555779
457 1 0.903368 0.119778 0.513958
345 1 0.98033 0.220046 0.519647
128 1 0.83435 0.0313942 0.678989
350 1 0.799388 0.141453 0.515792
277 1 0.58537 0.294375 0.660887
520 1 0.695089 0.261298 0.543847
74 1 0.634833 0.361098 0.561217
245 1 0.535676 0.422827 0.530299
622 1 0.675071 0.323498 0.652105
574 1 0.573623 0.476909 0.726301
225 1 0.749486 0.429922 0.697258
503 1 0.501169 0.300214 0.706862
181 1 0.595823 0.263335 0.561496
678 2 0.536007 0.483593 0.61112
715 2 0.602987 0.408694 0.652292
426 1 0.896937 0.3283 0.594276
208 1 0.76015 0.298869 0.719426
570 1 0.814332 0.361682 0.668573
219 1 0.754607 0.448528 0.552331
234 1 0.752046 0.354947 0.575907
657 2 0.881352 0.454787 0.669865
535 1 0.9594 0.467977 0.598705
199 1 0.991939 0.358048 0.674921
119 1 0.834498 0.412897 0.577666
746 2 0.878903 0.252466 0.671648
190 1 0.935805 0.409541 0.520025
314 1 0.613764 0.225538 0.92792
731 2 0.59114 0.114888 0.756458
747 2 0.695458 0.177266 0.830835
706 2 0.57398 0.221934 0.822915
55 1 0.57613 0.0311734 0.831925
700 2 0.580642 0.0354121 0.984388
661 2 0.624626 0.107144 0.870011
263 1 0.729943 0.0392828 0.870563
514 1 0.667357 0.0734133 0.970176
178 1 0.516974 0.0784224 0.906372
155 1 0.645848 0.0148114 0.777863
709 2 0.539927 0.16203 0.981551
679 2 0.501991 0.14448 0.8247
718 2 0.704596 0.170087 0.994334
565 1 0.976989 0.1599 0.788196
185 1 0.767894 0.158729 0.902958
247 1 0.946738 0.218628 0.977302
516 1 0.947939 0.0590721 0.843043
409 1 0.783119 0.214588 0.777777
418 1 0.781681 0.0987332 0.801446
519 1 0.89197 0.0864475 0.762787
257 1 0.883123 0.196345 0.751212
122 1 0.873243 0.115577 0.977128
467 1 0.836667 0.219655 0.931993
582 1 0.862786 0.0788639 0.897744
40 1 0.760702 0.0219615 0.758813
359 1 0.899711 0.153826 0.875473
364 1 0.964684 0.0578925 0.933572
699 2 0.620572 0.373811 0.755145
16 1 0.691536 0.287056 0.871989
308 1 0.561327 0.487557 0.93391
41 1 0.669965 0.487959 0.773029
29 1 0.731374 0.371509 0.792663
500 1 0.603498 0.316396 0.843738
283 1 0.673455 0.270292 0.764921
268 1 0.542601 0.287002 0.922524
670 2 0.524751 0.395545 0.752159
525 1 0.583684 0.41612 0.858674
215 1 0.504951 0.328517 0.825883
674 2 0.693095 0.385592 0.896309
453 1 0.591392 0.384333 0.961555
413 1 0.662746 0.290977 0.99005
534 1 0.896903 0.412582 0.964637
12 1 0.962822 0.430355 0.7534
240 1 0.790656 0.425221 0.981648
221 1 0.85801 0.33995 0.787484
337 1 0.768953 0.458436 0.859759
643 1 0.834666 0.48922 0.929083
293 1 0.799474 0.282399 0.868301
414 1 0.754589 0.319467 0.961629
344 1 0.97123 0.349751 0.808599
756 2 0.842521 0.366687 0.893476
602 1 0.989916 0.463367 0.901043
556 1 0.943054 0.29182 0.904474
685 2 0.825478 0.470295 0.762825
763 2 0.96278 0.253039 0.816451
488 1 0.68466 0.689712 0.187411
358 1 0.55514 0.53276 0.0599018
348 1 0.596923 0.606987 0.168473
39 1 0.655546 0.583777 0.082914
72 1 0.70007 0.694265 0.0731901
430 1 0.652005 0.524166 0.010285
423 1 0.705511 0.590783 0.168209
697 2 0.567879 0.662094 0.099241
572 1 0.591783 0.698411 0.220533
484 1 0.784105 0.559478 0.146149
134 1 0.79616 0.679358 0.17888
7 1 0.849989 0.60246 0.0995868
26 1 0.897742 0.644796 0.0045734
148 1 0.895338 0.674292 0.192344
251 1 0.800716 0.696711 0.0672667
236 1 0.905182 0.547859 0.174852
568 1 0.993503 0.720178 0.193772
579 1 0.848763 0.591999 0.249278
88 1 0.954037 0.582784 0.0619444
343 1 0.852511 0.507068 0.0177123
593 1 0.96156 0.679297 0.0968157
429 1 0.975565 0.614123 0.212391
734 2 0.75801 0.537623 0.0164207
562 1 0.636996 0.794476 0.193968
367 1 0.611456 0.771546 0.092625
193 1 0.556537 0.882031 0.0851431
33 1 0.727365 0.807674 0.0194303
578 1 0.525547 0.767626 0.151642
701 2 0.608961 0.939099 0.182315
608 1 0.600891 0.970174 0.088812
447 1 0.501334 0.971908 0.0498254
300 1 0.532651 0.871758 0.193874
385 1 0.743455 0.979311 0.0797866
749 2 0.734803 0.777221 0.140185
669 2 0.715654 0.971821 0.206167
771 2 0.67772 0.896503 0.0197857
610 1 0.827956 0.943424 0.222738
778 2 0.97394 0.81444 0.0211034
549 1 0.927772 0.750207 0.103679
78 1 0.80688 0.885469 0.0527658
673 2 0.89176 0.932769 0.121142
415 1 0.897489 0.838455 0.0894153
631 1 0.776008 0.895634 0.153807
108 1 0.974004 0.947855 0.0216746
586 1 0.83079 0.781289 0.190507
346 1 0.88676 0.864703 0.196271
609 1 0.924202 0.767919 0.242252
162 1 0.873044 0.767345 0.0016896
149 1 0.53229 0.61359 0.411289
529 1 0.689183 0.551441 0.266142
256 1 0.7277 0.612533 0.487953
388 1 0.539479 0.564658 0.25846
227 1 0.525821 0.505641 0.414408
543 1 0.590006 0.534916 0.333023
45 1 0.737484 0.663832 0.276389
267 1 0.749232 0.593931 0.361784
482 1 0.663787 0.544664 0.422166
58 1 0.660463 0.646742 0.364775
175 1 0.609372 0.724958 0.429651
235 1 0.659321 0.731942 0.315941
279 1 0.550953 0.672573 0.320816
589 1 0.826723 0.577676 0.429975
445 1 0.890516 0.609746 0.356256
469 1 0.789331 0.676224 0.431692
332 1 0.885066 0.725969 0.401471
323 1 0.837291 0.709419 0.277701
328 1 0.826695 0.535472 0.334228
772 2 0.905012 0.513393 0.272713
617 1 0.99555 0.536164 0.378481
98 1 0.987709 0.6382 0.427041
317 1 0.931328 0.567188 0.485692
449 1 0.94946 0.668764 0.2965
459 1 0.743207 0.769843 0.26244
15 1 0.669205 0.811426 0.41352
515 1 0.542265 0.90447 0.291419
723 2 0.536304 0.787246 0.372579
62 1 0.569649 0.79746 0.274706
601 1 0.529158 0.766983 0.475595
667 2 0.72169 0.930389 0.390036
132 1 0.652755 0.95742 0.310084
425 1 0.529439 0.944412 0.447865
230 1 0.628502 0.901348 0.40839
49 1 0.501111 0.988036 0.30892
211 1 0.742975 0.870884 0.286651
555 1 0.640772 0.854784 0.319074
196 1 0.929062 0.86366 0.446996
473 1 0.951872 0.852671 0.280342
238 1 0.965383 0.751206 0.474468
527 1 0.849268 0.791259 0.468158
754 2 0.849679 0.826189 0.290075
228 1 0.95329 0.969138 0.273729
287 1 0.919278 0.814274 0.3774
767 2 0.894439 0.925246 0.343267
407 1 0.754708 0.967037 0.49758
117 1 0.754281 0.762917 0.353668
463 1 0.828536 0.949644 0.41098
28 1 0.797028 0.860324 0.370515
341 1 0.762013 0.83428 0.446309
276 1 0.681049 0.683581 0.73034
428 1 0.675598 0.748971 0.64077
156 1 0.545177 0.546026 0.501997
401 1 0.647884 0.51816 0.669114
157 1 0.647537 0.531497 0.550125
594 1 0.665783 0.624493 0.637709
509 1 0.555784 0.587288 0.595641
124 1 0.517885 0.706085 0.547643
672 2 0.600392 0.72876 0.689385
31 1 0.586261 0.584177 0.7077
170 1 0.62168 0.739067 0.548607
391 1 0.601691 0.65418 0.502167
686 2 0.875776 0.522321 0.56258
693 2 0.761496 0.681356 0.545097
442 1 0.830515 0.602251 0.523141
595 1 0.788176 0.59946 0.613168
27 1 0.954104 0.627184 0.708117
573 1 0.802119 0.634481 0.715802
436 1 0.863923 0.661211 0.638922
259 1 0.86681 0.73185 0.549601
703 2 0.968233 0.71262 0.663825
489 1 0.768375 0.736783 0.730722
751 2 0.878012 0.557523 0.651787
36 1 0.7675 0.503332 0.63345
487 1 0.99226 0.508883 0.709351
762 2 0.961275 0.594102 0.596038
764 2 0.955487 0.685168 0.573749
20 1 0.546379 0.811296 0.622345
326 1 0.685293 0.873115 0.547597
305 1 0.740181 0.850107 0.651024
363 1 0.591186 0.83765 0.517535
107 1 0.505176 0.916733 0.620332
356 1 0.634841 0.883288 0.662529
605 1 0.59266 0.938202 0.519065
630 1 0.738842 0.786274 0.550841
575 1 0.669862 0.797967 0.730009
646 1 0.506076 0.872455 0.509713
147 1 0.516777 0.885347 0.723165
705 2 0.702366 0.95794 0.69529
330 1 0.658467 0.960793 0.587352
636 1 0.589741 0.985444 0.696747
114 1 0.773384 0.943676 0.60371
180 1 0.836457 0.88652 0.539963
650 2 0.894673 0.960315 0.611278
25 1 0.872508 0.828756 0.621438
265 1 0.814501 0.903007 0.730666
303 1 0.932338 0.926862 0.52392
154 1 0.99103 0.879465 0.603028
468 1 0.909358 0.966471 0.728938
161 1 0.920771 0.834727 0.541348
398 1 0.958651 0.80826 0.682208
684 2 0.536352 0.672973 0.756943
480 1 0.737333 0.638628 0.811118
663 2 0.590633 0.597386 0.977575
465 1 0.571861 0.696461 0.996934
581 1 0.584035 0.68452 0.910575
53 1 0.739287 0.563366 0.891623
683 2 0.553366 0.611997 0.831871
127 1 0.621027 0.714843 0.814251
696 2 0.664505 0.635559 0.88151
417 1 0.650124 0.589268 0.787663
278 1 0.698707 0.6074 0.990182
712 2 0.672259 0.706941 0.952815
745 2 0.565868 0.514979 0.832275
781 2 0.654481 0.514538 0.906679
713 2 0.813569 0.610395 0.972017
554 1 0.902034 0.500636 0.803208
760 2 0.923168 0.709893 0.758397
382 1 0.892103 0.57119 0.906934
353 1 0.94631 0.622398 0.823741
284 1 0.758342 0.549376 0.757576
224 1 0.835934 0.72761 0.818986
220 1 0.840946 0.57318 0.826925
295 1 0.773275 0.698598 0.928673
508 1 0.937017 0.744703 0.92204
237 1 0.996299 0.52457 0.832581
743 2 0.666982 0.84665 0.931354
120 1 0.630127 0.791943 0.862266
229 1 0.636408 0.905936 0.756595
286 1 0.504692 0.985769 0.761931
390 1 0.502963 0.991536 0.879237
750 2 0.569109 0.816305 0.785333
490 1 0.522595 0.813019 0.891355
583 1 0.719721 0.755763 0.809011
11 1 0.710341 0.898698 0.856824
513 1 0.669437 0.968237 0.912844
652 2 0.585433 0.915403 0.854796
682 2 0.5659 0.89266 0.964162
365 1 0.600976 0.800236 0.994838
5 1 0.766524 0.904277 0.955374
462 1 0.812628 0.992311 0.977063
121 1 0.892376 0.973479 0.903225
34 1 0.768204 0.836033 0.78045
494 1 0.970866 0.863664 0.918781
291 1 0.86709 0.869544 0.976144
619 1 0.787152 0.79902 0.924829
292 1 0.967309 0.880162 0.763522
83 1 0.881806 0.814203 0.880723
546 1 0.870007 0.823112 0.772814
400 1 0.820293 0.88682 0.871817
189 1 0.996359 0.800638 0.84564
84 1 0.849761 0.977139 0.810231
