LAMMPS (2 Jun 2022)
OMP_NUM_THREADS environment is not set. Defaulting to 1 thread. (src/comm.cpp:98)
  using 1 OpenMP thread(s) per MPI task
#melt Cu-Ni using eam/alloy potential

units metal

lattice  fcc 3.61
Lattice spacing in x,y,z = 3.61 3.61 3.61
region   box block 0 5 0 5 0 5

create_box  2 box
Created orthogonal box = (0 0 0) to (18.05 18.05 18.05)
  2 by 2 by 2 MPI processor grid
create_atoms  1 box
Created 500 atoms
  using lattice units in orthogonal box = (0 0 0) to (18.05 18.05 18.05)
  create_atoms CPU = 0.000 seconds
group 1 type 1 2
500 atoms in group 1

set group 1 type/fraction 2 0.5 100000
Setting atom values ...
  257 settings made for type/fraction
mass  1 63.54
mass  2 58.69
velocity all create 2000  2000

pair_style  eam/alloy
pair_coeff  * * CuNi.eam.alloy Cu Ni
Reading eam/alloy potential file CuNi.eam.alloy with DATE: 2014-07-11
neighbor    2.0 bin
neigh_modify every 20 delay 0 check no

fix 1 all nvt temp 1000 6000 100

thermo  1000
thermo_style  custom   step temp press vol pe ke etotal enthalpy
thermo_modify flush yes

compute  myMSD all msd
fix      2 all ave/time 1 10 10 c_myMSD[4] file msd.txt

dump 1 all custom 1000  dump.lammpstrj  id type x y z

run 1000000
Neighbor list info ...
  update every 20 steps, delay 0 steps, check no
  max neighbors/atom: 2000, page size: 100000
  master list distance cutoff = 8.3943324
  ghost atom cutoff = 8.3943324
  binsize = 4.1971662, bins = 5 5 5
  1 neighbor lists, perpetual/occasional/extra = 1 0 0
  (1) pair eam/alloy, perpetual
      attributes: half, newton on
      pair build: half/bin/atomonly/newton
      stencil: half/bin/3d
      bin: standard
Per MPI rank memory allocation (min/avg/max) = 4.498 | 4.498 | 4.498 Mbytes
   Step          Temp          Press          Volume         PotEng         KinEng         TotEng        Enthalpy   
         0   2000.0781     -13044.459      5880.7351     -1986.3195      129.00666     -1857.3128     -1905.192     
      1000   1007.2879      35191.905      5880.7351     -1922.259       64.970886     -1857.2882     -1728.1174    
      2000   1060.4174      33180.071      5880.7351     -1925.6942      68.397782     -1857.2964     -1735.5101    
      3000   1030.9899      34525.339      5880.7351     -1923.7954      66.499683     -1857.2957     -1730.5716    
      4000   1035.9367      33346.111      5880.7351     -1924.1216      66.81876      -1857.3028     -1734.907     
      5000   952.76529      38422.55       5880.7351     -1918.749       61.454135     -1857.2949     -1716.2662    
      6000   967.5314       36537.131      5880.7351     -1919.7062      62.406561     -1857.2997     -1723.1914    
      7000   1061.5484      32507.086      5880.7351     -1925.7692      68.470736     -1857.2985     -1737.9823    
      8000   1006.3295      34905.104      5880.7351     -1922.2043      64.909069     -1857.2953     -1729.1772    
      9000   1026.6085      34531.48       5880.7351     -1923.5185      66.217081     -1857.3014     -1730.5547    
     10000   957.42807      36759.346      5880.7351     -1919.0524      61.754888     -1857.2975     -1722.3736    
     11000   1035.4484      34000.631      5880.7351     -1924.0897      66.787263     -1857.3025     -1732.5043    
     12000   1029.3851      34225.131      5880.7351     -1923.6894      66.396173     -1857.2932     -1731.671     
     13000   954.89168      37108.659      5880.7351     -1918.8776      61.591289     -1857.2863     -1721.0802    
     14000   1068.6625      32614.999      5880.7351     -1926.218       68.929602     -1857.2884     -1737.5762    
     15000   970.35551      36442.057      5880.7351     -1919.8661      62.588718     -1857.2774     -1723.518     
     16000   995.73467      35190.621      5880.7351     -1921.4973      64.225695     -1857.2716     -1728.1057    
     17000   1043.9373      33841.122      5880.7351     -1924.6089      67.334804     -1857.2741     -1733.0614    
     18000   969.24407      36756.781      5880.7351     -1919.7839      62.51703      -1857.2669     -1722.3524    
     19000   1020.3001      33766.484      5880.7351     -1923.0656      65.810182     -1857.2555     -1733.3167    
     20000   1038.7352      34204.811      5880.7351     -1924.2502      66.999262     -1857.2509     -1731.7033    
     21000   1018.1299      34503.892      5880.7351     -1922.9076      65.670205     -1857.2374     -1730.592     
     22000   1013.4363      34619.687      5880.7351     -1922.5929      65.367466     -1857.2254     -1730.155     
     23000   1018.8666      34421.759      5880.7351     -1922.9322      65.717726     -1857.2145     -1730.8706    
     24000   1036.6139      34254.695      5880.7351     -1924.0637      66.862439     -1857.2013     -1731.4706    
     25000   1015.6547      35552.949      5880.7351     -1922.6937      65.510553     -1857.1831     -1726.6872    
     26000   967.25754      35561.959      5880.7351     -1919.5608      62.388897     -1857.172      -1726.643     
     27000   1051.2051      33608.903      5880.7351     -1924.9598      67.803581     -1857.1562     -1733.7959    
     28000   974.76483      36709.925      5880.7351     -1920.0077      62.873123     -1857.1345     -1722.392     
     29000   1023.2184      35017.934      5880.7351     -1923.1098      65.998416     -1857.1114     -1728.5793    
     30000   1061.7783      32874.095      5880.7351     -1925.5746      68.48556      -1857.089      -1736.4257    
     31000   993.57415      36263.257      5880.7351     -1921.1434      64.08634      -1857.0571     -1723.954     
     32000   1020.3012      34236.069      5880.7351     -1922.8394      65.810255     -1857.0291     -1731.3668    
     33000   1057.0473      33320.688      5880.7351     -1925.1841      68.180407     -1857.0037     -1734.7012    
     34000   1030.1236      34702.944      5880.7351     -1923.4172      66.443808     -1856.9734     -1729.5974    
     35000   1045.9988      33982.214      5880.7351     -1924.408       67.467774     -1856.9402     -1732.2097    
     36000   1050.304       33304.595      5880.7351     -1924.6499      67.745463     -1856.9044     -1734.661     
     37000   999.97361      35664.445      5880.7351     -1921.3656      64.49911      -1856.8665     -1725.9613    
     38000   1075.8691      32240.546      5880.7351     -1926.2206      69.394431     -1856.8262     -1738.4883    
     39000   1018.2156      34707.688      5880.7351     -1922.4547      65.675733     -1856.779      -1729.3856    
     40000   1052.9802      33524.106      5880.7351     -1924.652       67.918078     -1856.7339     -1733.6848    
     41000   971.81477      37993.445      5880.7351     -1919.3778      62.682842     -1856.6949     -1717.2412    
     42000   973.04044      37323.897      5880.7351     -1919.407       62.761899     -1856.6451     -1719.6489    
     43000   1012.9824      35221.446      5880.7351     -1921.9404      65.338189     -1856.6022     -1727.3231    
     44000   967.70387      37364.526      5880.7351     -1918.969       62.417686     -1856.5513     -1719.406     
     45000   999.50005      36220.505      5880.7351     -1920.9735      64.468565     -1856.5049     -1723.5588    
     46000   1003.5386      35372.765      5880.7351     -1921.176       64.729053     -1856.4469     -1726.6124    
     47000   993.76738      36473.902      5880.7351     -1920.4835      64.098803     -1856.3847     -1722.5085    
     48000   997.37941      36159.54       5880.7351     -1920.6494      64.331782     -1856.3176     -1723.5952    
     49000   1026.8864      35152.289      5880.7351     -1922.4881      66.23501      -1856.2531     -1727.2278    
     50000   983.86355      37594.871      5880.7351     -1919.6428      63.459998     -1856.1828     -1718.1921    
     51000   1015.7412      35255.737      5880.7351     -1921.6372      65.516135     -1856.1211     -1726.7161    
     52000   1010.721       36199.741      5880.7351     -1921.2462      65.192323     -1856.0539     -1723.1839    
     53000   1021.2243      35395.08       5880.7351     -1921.8529      65.869796     -1855.9831     -1726.0667    
     54000   1048.0518      35002.272      5880.7351     -1923.5029      67.600195     -1855.9027     -1727.4281    
     55000   1026.5155      35527.167      5880.7351     -1922.0291      66.211082     -1855.818      -1725.4167    
     56000   980.96905      37232.622      5880.7351     -1919.0088      63.273301     -1855.7355     -1719.0744    
     57000   1002.0921      36362.789      5880.7351     -1920.2774      64.635755     -1855.6417     -1722.1733    
     58000   1020.8366      35796.053      5880.7351     -1921.4         65.844787     -1855.5552     -1724.167     
     59000   1015.9461      36576.14       5880.7351     -1920.9959      65.52935      -1855.4666     -1721.2151    
     60000   1021.0435      36666.096      5880.7351     -1921.2305      65.858136     -1855.3724     -1720.7907    
     61000   1022.1099      35573.334      5880.7351     -1921.2083      65.926922     -1855.2814     -1724.7106    
     62000   998.73072      36971.778      5880.7351     -1919.5989      64.418943     -1855.18       -1719.4763    
     63000   1022.8079      36740.554      5880.7351     -1921.0567      65.971942     -1855.0847     -1720.2298    
     64000   1070.2677      33944.173      5880.7351     -1924.0144      69.033138     -1854.9813     -1730.3904    
     65000   1009.4296      36881.577      5880.7351     -1919.9747      65.109032     -1854.8657     -1719.4931    
     66000   990.67455      37078.361      5880.7351     -1918.6564      63.899313     -1854.757      -1718.6622    
     67000   1091.8061      33178.517      5880.7351     -1925.0815      70.422381     -1854.6591     -1732.8785    
     68000   1020.6202      36264.367      5880.7351     -1920.3779      65.830832     -1854.547      -1721.4399    
     69000   1082.4198      34352.079      5880.7351     -1924.2486      69.816953     -1854.4317     -1728.3435    
     70000   1085.1532      34482.675      5880.7351     -1924.3143      69.993264     -1854.3211     -1727.7536    
     71000   1022.109       36243.224      5880.7351     -1920.127       65.926862     -1854.2001     -1721.1706    
     72000   1049.82        36355.707      5880.7351     -1921.7983      67.714242     -1854.0841     -1720.6417    
     73000   1027.6337      37321.36       5880.7351     -1920.2396      66.283207     -1853.9564     -1716.9696    
     74000   1068.6118      35374.493      5880.7351     -1922.7688      68.926328     -1853.8425     -1724.0016    
     75000   1025.7988      37274.878      5880.7351     -1919.878       66.164856     -1853.7131     -1716.8969    
     76000   1106.8414      33044.182      5880.7351     -1924.9778      71.392169     -1853.5856     -1732.2981    
     77000   1071.2838      36036.898      5880.7351     -1922.555       69.098674     -1853.4563     -1721.184     
     78000   1056.402       36300.028      5880.7351     -1921.4688      68.138784     -1853.33       -1720.0919    
     79000   1059.0163      35781.449      5880.7351     -1921.5062      68.307412     -1853.1988     -1721.8642    
     80000   1121.1843      33490.199      5880.7351     -1925.384       72.317295     -1853.0667     -1730.142     
     81000   1066.9013      35879.454      5880.7351     -1921.7578      68.815999     -1852.9418     -1721.2474    
     82000   1071.4305      36927.396      5880.7351     -1921.9195      69.108137     -1852.8114     -1717.2706    
     83000   1034.4374      37589.411      5880.7351     -1919.4048      66.72205      -1852.6827     -1714.712     
     84000   1090.1247      36214.327      5880.7351     -1922.8684      70.313931     -1852.5545     -1719.631     
     85000   1043.2258      37509.247      5880.7351     -1919.7186      67.28891      -1852.4297     -1714.7533    
     86000   1053.6486      37808.162      5880.7351     -1920.2724      67.96119      -1852.3112     -1713.5376    
     87000   1062.5454      36893.583      5880.7351     -1920.7222      68.53504      -1852.1872     -1716.7705    
     88000   1064.2428      37408.965      5880.7351     -1920.703       68.644525     -1852.0585     -1714.7501    
     89000   1034.4618      38832.47       5880.7351     -1918.6529      66.723629     -1851.9293     -1709.396     
     90000   1066.4301      37598.83       5880.7351     -1920.5974      68.785605     -1851.8118     -1713.8066    
     91000   1012.9101      40130.959      5880.7351     -1917.0209      65.333525     -1851.6874     -1704.3881    
     92000   1027.9214      38963.233      5880.7351     -1917.8687      66.301766     -1851.5669     -1708.5536    
     93000   1082.131       36967.496      5880.7351     -1921.2449      69.798327     -1851.4466     -1715.7586    
     94000   1054.6444      37579.187      5880.7351     -1919.3524      68.025422     -1851.327      -1713.3938    
     95000   1094.6742      36343.845      5880.7351     -1921.8197      70.607372     -1851.2123     -1717.8134    
     96000   1053.6396      38329.5        5880.7351     -1919.0512      67.960612     -1851.0906     -1710.4035    
     97000   1061.7981      38526.908      5880.7351     -1919.4579      68.486842     -1850.9711     -1709.5594    
     98000   1048.2707      38960.557      5880.7351     -1918.4572      67.614314     -1850.8429     -1707.8395    
     99000   1048.7625      39703.746      5880.7351     -1918.3708      67.646035     -1850.7248     -1704.9935    
    100000   1124.9096      35614.592      5880.7351     -1923.1652      72.557586     -1850.6076     -1719.8854    
    101000   1077.6471      37905.598      5880.7351     -1919.9909      69.509111     -1850.4818     -1711.3506    
    102000   1055.088       39225.076      5880.7351     -1918.422       68.054033     -1850.3679     -1706.3936    
    103000   1056.0961      39541.487      5880.7351     -1918.3771      68.119054     -1850.258      -1705.1223    
    104000   1092.8372      37441.163      5880.7351     -1920.6351      70.488885     -1850.1462     -1712.7197    
    105000   1047.96        40048.654      5880.7351     -1917.6265      67.594272     -1850.0322     -1703.035     
    106000   1011.1759      41931.013      5880.7351     -1915.1386      65.221668     -1849.917      -1696.0106    
    107000   1094.5368      37605.211      5880.7351     -1920.404       70.598514     -1849.8055     -1711.7768    
    108000   1078.1258      38574.541      5880.7351     -1919.2295      69.539988     -1849.6895     -1708.1029    
    109000   1097.6533      37881.632      5880.7351     -1920.3808      70.799527     -1849.5813     -1710.538     
    110000   1055.8961      40011.984      5880.7351     -1917.569       68.106153     -1849.4628     -1702.6002    
    111000   1073.0452      39180.024      5880.7351     -1918.5685      69.212284     -1849.3562     -1705.5472    
    112000   1102.6766      37941.737      5880.7351     -1920.376       71.123534     -1849.2524     -1709.9885    
    113000   1066.33        39304.755      5880.7351     -1917.9194      68.779149     -1849.1402     -1704.8735    
    114000   1033.3857      40531.064      5880.7351     -1915.6859      66.65422      -1849.0316     -1700.2637    
    115000   1041.2767      41453.715      5880.7351     -1916.0798      67.163193     -1848.9166     -1696.7621    
    116000   1054.0558      41268.049      5880.7351     -1916.7958      67.987457     -1848.8083     -1697.3353    
    117000   1083.9048      38547.278      5880.7351     -1918.6066      69.912743     -1848.6939     -1707.2074    
    118000   1080.8387      39735.817      5880.7351     -1918.2977      69.714975     -1848.5827     -1702.7338    
    119000   1094.1895      38218.893      5880.7351     -1919.042       70.576111     -1848.4659     -1708.1848    
    120000   1092.0296      38970.731      5880.7351     -1918.7925      70.436795     -1848.3557     -1705.3149    
    121000   1045.0812      41218.773      5880.7351     -1915.6484      67.408588     -1848.2398     -1696.9477    
    122000   1068.1491      40010.908      5880.7351     -1917.0236      68.896485     -1848.1271     -1701.2684    
    123000   1110.5597      38094.218      5880.7351     -1919.6458      71.632006     -1848.0138     -1708.1903    
    124000   1100.1083      38952.864      5880.7351     -1918.8507      70.957877     -1847.8928     -1704.9176    
    125000   1073.745       40197.59       5880.7351     -1917.0277      69.257424     -1847.7703     -1700.2264    
    126000   1097.3276      39883.162      5880.7351     -1918.4245      70.778523     -1847.646      -1701.2562    
    127000   1111.9377      39095.204      5880.7351     -1919.2493      71.720885     -1847.5284     -1704.0308    
    128000   1102.5031      40320.898      5880.7351     -1918.5141      71.112346     -1847.4017     -1699.4052    
    129000   1081.4561      40105.641      5880.7351     -1917.0252      69.754796     -1847.2704     -1700.064     
    130000   1076.358       40570.824      5880.7351     -1916.5723      69.425964     -1847.1463     -1698.2325    
    131000   1071.6317      40904.745      5880.7351     -1916.1353      69.121114     -1847.0142     -1696.8747    
    132000   1074.9201      41493.035      5880.7351     -1916.2202      69.333221     -1846.8869     -1694.5881    
    133000   1051.6494      42151.428      5880.7351     -1914.5833      67.83224      -1846.7511     -1692.0357    
    134000   1080.1774      41664.146      5880.7351     -1916.2932      69.672321     -1846.6209     -1693.6941    
    135000   1058.5342      42546.807      5880.7351     -1914.7598      68.276319     -1846.4834     -1690.3168    
    136000   1157.2459      38239.085      5880.7351     -1920.9901      74.643298     -1846.3468     -1705.9916    
    137000   1089.8077      40863.985      5880.7351     -1916.5026      70.29348      -1846.2091     -1696.2193    
    138000   1127.3445      39752.496      5880.7351     -1918.7779      72.714639     -1846.0633     -1700.1531    
    139000   1116.5535      39973.112      5880.7351     -1917.9443      72.018605     -1845.9257     -1699.2057    
    140000   1129.6477      39713.647      5880.7351     -1918.6468      72.863196     -1845.7836     -1700.016     
    141000   1148.6404      38733.463      5880.7351     -1919.7319      74.088238     -1845.6436     -1703.4737    
    142000   1088.7231      41755.589      5880.7351     -1915.7136      70.223524     -1845.4901     -1692.2276    
    143000   1064.9625      43355.02       5880.7351     -1914.0329      68.690944     -1845.3419     -1686.2088    
    144000   1096.3298      41536.147      5880.7351     -1915.9106      70.714162     -1845.1964     -1692.7394    
    145000   1120.8014      40270.452      5880.7351     -1917.3403      72.292599     -1845.0477     -1697.2364    
    146000   1072.6356      43287.628      5880.7351     -1914.0813      69.185865     -1844.8954     -1686.0096    
    147000   1055.9035      43861.172      5880.7351     -1912.8505      68.106631     -1844.7438     -1683.7529    
    148000   1064.8205      44338.439      5880.7351     -1913.2733      68.68179      -1844.5915     -1681.8488    
    149000   1109.3131      41513.418      5880.7351     -1915.9911      71.551595     -1844.4395     -1692.0659    
    150000   1127.3887      41170.152      5880.7351     -1916.9893      72.717489     -1844.2718     -1693.1582    
    151000   1132.2871      40842.38       5880.7351     -1917.1366      73.033438     -1844.1031     -1694.1925    
    152000   1150.8571      41064.305      5880.7351     -1918.1767      74.23122      -1843.9455     -1693.2203    
    153000   1139.1794      41090.747      5880.7351     -1917.2685      73.477995     -1843.7905     -1692.9683    
    154000   1085.2385      42901.974      5880.7351     -1913.624       69.998764     -1843.6252     -1686.1549    
    155000   1114.843       42400.152      5880.7351     -1915.3707      71.908277     -1843.4624     -1687.834     
    156000   1149.6829      40530.915      5880.7351     -1917.4493      74.15548      -1843.2938     -1694.5264    
    157000   1105.597       43230.856      5880.7351     -1914.4324      71.311904     -1843.1205     -1684.443     
    158000   1112.1482      43060.31       5880.7351     -1914.6844      71.734463     -1842.9499     -1684.8985    
    159000   1115.5766      43254.226      5880.7351     -1914.7409      71.955598     -1842.7853     -1684.0221    
    160000   1126.2578      41934.257      5880.7351     -1915.2569      72.644541     -1842.6123     -1688.694     
    161000   1155.3031      41764.869      5880.7351     -1916.9531      74.517985     -1842.4351     -1689.1386    
    162000   1093.7076      44419.78       5880.7351     -1912.8015      70.545028     -1842.2565     -1679.2151    
    163000   1132.44        42831.604      5880.7351     -1915.1209      73.043303     -1842.0776     -1684.8656    
    164000   1139.6704      42837.992      5880.7351     -1915.4183      73.509667     -1841.9086     -1684.6732    
    165000   1121.8903      43419.49       5880.7351     -1914.0918      72.362836     -1841.729      -1682.3592    
    166000   1159.7432      42108.782      5880.7351     -1916.3593      74.804376     -1841.5549     -1686.996     
    167000   1175.4136      42080.651      5880.7351     -1917.1922      75.81513      -1841.3771     -1686.9215    
    168000   1110.1461      44843.727      5880.7351     -1912.8038      71.605326     -1841.1985     -1676.6011    
    169000   1154.6858      42864.902      5880.7351     -1915.4988      74.478169     -1841.0206     -1683.6864    
    170000   1140.5692      44019.84       5880.7351     -1914.4034      73.567639     -1840.8357     -1679.2624    
    171000   1127.7746      44814.413      5880.7351     -1913.3893      72.742379     -1840.6469     -1676.1571    
    172000   1155.2408      43881.252      5880.7351     -1914.9765      74.513968     -1840.4625     -1679.3979    
    173000   1132.3401      44597.946      5880.7351     -1913.3163      73.036855     -1840.2794     -1676.5841    
    174000   1155.3492      44083.503      5880.7351     -1914.6122      74.52096      -1840.0912     -1678.2842    
    175000   1161.718       44003.893      5880.7351     -1914.8321      74.931757     -1839.9003     -1678.3855    
    176000   1190.5669      42494.734      5880.7351     -1916.4981      76.792532     -1839.7056     -1683.7301    
    177000   1150.146       43600.74       5880.7351     -1913.7031      74.185351     -1839.5177     -1679.4827    
    178000   1139.3762      44788.466      5880.7351     -1912.8214      73.490691     -1839.3307     -1674.9361    
    179000   1079.7626      48448.911      5880.7351     -1908.7933      69.645564     -1839.1477     -1661.3176    
    180000   1167.1321      44113.769      5880.7351     -1914.2378      75.28097      -1838.9569     -1677.0388    
    181000   1170.5727      44226.058      5880.7351     -1914.2639      75.502893     -1838.761      -1676.4308    
    182000   1138.3052      44850.287      5880.7351     -1911.9859      73.421611     -1838.5643     -1673.9428    
    183000   1137.9409      45809.272      5880.7351     -1911.774       73.398113     -1838.3759     -1670.2345    
    184000   1142.0753      46578.032      5880.7351     -1911.8506      73.664784     -1838.1859     -1667.2228    
    185000   1181.3807      44602.81       5880.7351     -1914.1894      76.200015     -1837.9893     -1674.2762    
    186000   1150.9356      45906.389      5880.7351     -1912.0317      74.236281     -1837.7954     -1669.2975    
    187000   1145.6123      45158.917      5880.7351     -1911.4858      73.892924     -1837.5928     -1671.8386    
    188000   1195.7969      44397.848      5880.7351     -1914.5307      77.129869     -1837.4008     -1674.44      
    189000   1113.9871      47613.957      5880.7351     -1909.0446      71.853071     -1837.1915     -1662.4261    
    190000   1115.5409      48325.571      5880.7351     -1908.9433      71.953296     -1836.9901     -1659.6127    
    191000   1153.0585      46629.104      5880.7351     -1911.1607      74.373208     -1836.7874     -1665.6369    
    192000   1147.3979      46891.708      5880.7351     -1910.5924      74.008099     -1836.5843     -1664.4699    
    193000   1189.2375      44670.368      5880.7351     -1913.0904      76.706783     -1836.3836     -1672.4225    
    194000   1165.1538      47001.107      5880.7351     -1911.3257      75.153366     -1836.1724     -1663.6564    
    195000   1223.9799      44166.668      5880.7351     -1914.9053      78.9477       -1835.9576     -1673.8454    
    196000   1103.1589      49262.812      5880.7351     -1906.9018      71.154648     -1835.7471     -1654.9296    
    197000   1169.2681      46817.17       5880.7351     -1910.9459      75.41874      -1835.5272     -1663.6863    
    198000   1135.3275      49285.618      5880.7351     -1908.5527      73.229543     -1835.3231     -1654.4219    
    199000   1200.0746      46010.447      5880.7351     -1912.5334      77.405787     -1835.1276     -1666.2478    
    200000   1171.3007      47241.655      5880.7351     -1910.4644      75.54985      -1834.9145     -1661.5156    
    201000   1182.2097      47211.45       5880.7351     -1910.9545      76.253486     -1834.701      -1661.413     
    202000   1173.9985      47310.901      5880.7351     -1910.2181      75.72386      -1834.4942     -1660.8412    
    203000   1215.9234      45243.048      5880.7351     -1912.7104      78.428047     -1834.2824     -1668.2193    
    204000   1209.6702      46993.081      5880.7351     -1912.096       78.024711     -1834.0713     -1661.5848    
    205000   1117.7122      51149.241      5880.7351     -1905.955       72.093343     -1833.8617     -1646.1201    
    206000   1254.1421      44898.398      5880.7351     -1914.5505      80.893185     -1833.6574     -1668.8593    
    207000   1212.9079      47570.433      5880.7351     -1911.6815      78.233542     -1833.448      -1658.8423    
    208000   1265.7933      44879.93       5880.7351     -1914.8845      81.644697     -1833.2398     -1668.5096    
    209000   1212.6111      48197.538      5880.7351     -1911.2319      78.214401     -1833.0175     -1656.1101    
    210000   1153.9186      49998.977      5880.7351     -1907.2319      74.428684     -1832.8032     -1649.2837    
    211000   1155.2591      50538.659      5880.7351     -1907.1033      74.51515      -1832.5881     -1647.0876    
    212000   1165.2118      49078.767      5880.7351     -1907.5231      75.157105     -1832.366      -1652.224     
    213000   1227.0847      47300.776      5880.7351     -1911.3058      79.147963     -1832.1578     -1658.5419    
    214000   1171.8276      49875.322      5880.7351     -1907.5358      75.583832     -1831.9519     -1648.8863    
    215000   1244.8598      47099.063      5880.7351     -1912.0214      80.294471     -1831.7269     -1658.8514    
    216000   1193.9515      49424.935      5880.7351     -1908.515       77.010839     -1831.5041     -1650.0916    
    217000   1228.6626      48070.174      5880.7351     -1910.528       79.249737     -1831.2782     -1654.8383    
    218000   1207.9126      50098.18       5880.7351     -1908.965       77.911343     -1831.0537     -1647.17      
    219000   1232.9158      47901.782      5880.7351     -1910.3499      79.524073     -1830.8258     -1655.004     
    220000   1201.5319      51189.64       5880.7351     -1908.0967      77.499787     -1830.5969     -1642.707     
    221000   1251.3608      47699.466      5880.7351     -1911.0938      80.713791     -1830.38       -1655.3007    
    222000   1237.4197      48472.141      5880.7351     -1909.975       79.814579     -1830.1605     -1652.2451    
    223000   1159.1159      52871.079      5880.7351     -1904.6937      74.763918     -1829.9298     -1635.8683    
    224000   1174.0314      52221.569      5880.7351     -1905.4245      75.725976     -1829.6985     -1638.021     
    225000   1181.6387      51487.601      5880.7351     -1905.691       76.216653     -1829.4743     -1640.4908    
    226000   1222.1621      50447.813      5880.7351     -1908.0766      78.830447     -1829.2461     -1644.0791    
    227000   1274.2924      47305.459      5880.7351     -1911.2082      82.192896     -1829.0153     -1655.3822    
    228000   1219.4702      49985.245      5880.7351     -1907.4439      78.656816     -1828.7871     -1645.318     
    229000   1191.9583      51586.798      5880.7351     -1905.4367      76.88228      -1828.5544     -1639.2068    
    230000   1236.3163      50767.559      5880.7351     -1908.0691      79.743408     -1828.3257     -1641.9851    
    231000   1232.2739      51070.655      5880.7351     -1907.5686      79.482665     -1828.0859     -1640.6328    
    232000   1184.5993      54032.565      5880.7351     -1904.2573      76.407617     -1827.8497     -1629.525     
    233000   1229.2795      51221.904      5880.7351     -1906.8944      79.289525     -1827.6049     -1639.5966    
    234000   1303.2748      47633.43       5880.7351     -1911.4334      84.062283     -1827.3711     -1652.5342    
    235000   1258.6079      51110.199      5880.7351     -1908.3136      81.181231     -1827.1324     -1639.5341    
    236000   1231.2711      52752.831      5880.7351     -1906.3157      79.417989     -1826.8978     -1633.2703    
    237000   1239.7607      51729.746      5880.7351     -1906.6229      79.965571     -1826.6574     -1636.7851    
    238000   1281.1215      50600.681      5880.7351     -1909.0508      82.633378     -1826.4174     -1640.6893    
    239000   1273.8539      50360.112      5880.7351     -1908.3434      82.164614     -1826.1788     -1641.3337    
    240000   1198.1866      53830.806      5880.7351     -1903.2213      77.28401      -1825.9373     -1628.3531    
    241000   1312.5092      48576.828      5880.7351     -1910.3467      84.65791      -1825.6888     -1647.3892    
    242000   1245.1718      52640.141      5880.7351     -1905.7542      80.314593     -1825.4396     -1632.2257    
    243000   1292.2888      50498.291      5880.7351     -1908.5434      83.353679     -1825.1897     -1639.8374    
    244000   1285.0106      51045.983      5880.7351     -1907.8419      82.884228     -1824.9576     -1637.5951    
    245000   1279.2825      51851.714      5880.7351     -1907.2337      82.514763     -1824.719      -1634.399     
    246000   1244.2401      53064.327      5880.7351     -1904.7335      80.254495     -1824.479      -1629.7082    
    247000   1315.3195      51003.109      5880.7351     -1909.0608      84.839174     -1824.2217     -1637.0165    
    248000   1235.2699      54351.918      5880.7351     -1903.6519      79.675911     -1823.976      -1624.4791    
    249000   1256.4057      53097.831      5880.7351     -1904.7621      81.039189     -1823.723      -1628.8291    
    250000   1245.9541      54890.459      5880.7351     -1903.8312      80.365049     -1823.4662     -1621.9926    
    251000   1282.3767      53661.197      5880.7351     -1905.9273      82.714338     -1823.213      -1626.2514    
    252000   1272.7356      53302.03       5880.7351     -1905.0628      82.092479     -1822.9703     -1627.327     
    253000   1270.278       53856.417      5880.7351     -1904.6539      81.933961     -1822.72       -1625.0418    
    254000   1283.5343      52857.832      5880.7351     -1905.2527      82.789007     -1822.4637     -1628.4508    
    255000   1303.6908      52472.505      5880.7351     -1906.2953      84.089116     -1822.2062     -1629.6076    
    256000   1318.8129      52469.875      5880.7351     -1907.0121      85.064505     -1821.9476     -1629.3587    
    257000   1215.4051      56441.54       5880.7351     -1900.0872      78.394616     -1821.6926     -1614.5258    
    258000   1365.0318      50675.861      5880.7351     -1909.4918      88.04566      -1821.4462     -1635.4421    
    259000   1249.7086      56161.477      5880.7351     -1901.787       80.607222     -1821.1798     -1615.041     
    260000   1282.1816      55293.921      5880.7351     -1903.6225      82.701756     -1820.9208     -1617.9663    
    261000   1251.092       57059.549      5880.7351     -1901.3657      80.696448     -1820.6692     -1611.234     
    262000   1268.8513      55885.226      5880.7351     -1902.2481      81.84194      -1820.4062     -1615.2813    
    263000   1320.7108      53696.525      5880.7351     -1905.3352      85.186922     -1820.1482     -1623.0569    
    264000   1323.7069      54709.75       5880.7351     -1905.2686      85.380171     -1819.8884     -1619.0781    
    265000   1272.1342      56355.533      5880.7351     -1901.6835      82.053688     -1819.6298     -1612.7787    
    266000   1282.0038      56709.628      5880.7351     -1902.0492      82.690289     -1819.3589     -1611.2081    
    267000   1316.979       55046.367      5880.7351     -1904.0436      84.946215     -1819.0973     -1617.0515    
    268000   1298.259       55552.214      5880.7351     -1902.563       83.73876      -1818.8242     -1614.9217    
    269000   1305.7386      55719.137      5880.7351     -1902.7821      84.221198     -1818.5609     -1614.0456    
    270000   1268.72        57951.539      5880.7351     -1900.1237      81.83347      -1818.2903     -1605.5811    
    271000   1333.3384      53980.388      5880.7351     -1904.0148      86.001413     -1818.0134     -1619.8802    
    272000   1334.2826      55413.108      5880.7351     -1903.8003      86.062311     -1817.738      -1614.3461    
    273000   1304.8059      56715.363      5880.7351     -1901.6412      84.161037     -1817.4802     -1609.3084    
    274000   1336.1509      54748.126      5880.7351     -1903.4027      86.18282      -1817.2199     -1616.2687    
    275000   1343.0309      54653.315      5880.7351     -1903.5825      86.626586     -1816.9559     -1616.3527    
    276000   1333.5252      55387.42       5880.7351     -1902.6922      86.013458     -1816.6788     -1613.3811    
    277000   1318.7403      56318.302      5880.7351     -1901.4779      85.059823     -1816.4181     -1609.7037    
    278000   1347.2285      55417.844      5880.7351     -1903.0418      86.89733      -1816.1445     -1612.7351    
    279000   1356.0332      55468.517      5880.7351     -1903.3315      87.465244     -1815.8663     -1612.2709    
    280000   1361.9498      56065.34       5880.7351     -1903.4364      87.84687      -1815.5896     -1609.8036    
    281000   1346.3047      56608.377      5880.7351     -1902.1382      86.837744     -1815.3004     -1607.5213    
    282000   1322.1446      57560.897      5880.7351     -1900.3028      85.279404     -1815.0234     -1603.7481    
    283000   1315.7101      59167.401      5880.7351     -1899.6042      84.864371     -1814.7398     -1597.5679    
    284000   1335.2097      58470.693      5880.7351     -1900.5797      86.122108     -1814.4576     -1599.8429    
    285000   1383.0592      56690.92       5880.7351     -1903.377       89.208439     -1814.1685     -1606.0864    
    286000   1298.0434      61672.456      5880.7351     -1897.5998      83.724853     -1813.875      -1587.5083    
    287000   1345.7609      57901.182      5880.7351     -1900.3936      86.802672     -1813.5909     -1601.0665    
    288000   1319.6262      59329.865      5880.7351     -1898.4289      85.116961     -1813.312      -1595.5437    
    289000   1420.3709      55546.005      5880.7351     -1904.6338      91.615078     -1813.0187     -1609.139     
    290000   1306.3526      60511.579      5880.7351     -1896.9867      84.260805     -1812.7259     -1590.6202    
    291000   1395.0299      57095.119      5880.7351     -1902.4123      89.980562     -1812.4318     -1602.8661    
    292000   1400.2241      56630.218      5880.7351     -1902.458       90.315589     -1812.1424     -1604.2831    
    293000   1337.8311      59353.029      5880.7351     -1898.1509      86.291194     -1811.8597     -1594.0064    
    294000   1257.9353      64450.308      5880.7351     -1892.7051      81.137849     -1811.5673     -1575.0046    
    295000   1366.8234      59021.582      5880.7351     -1899.4339      88.161223     -1811.2727     -1594.636     
    296000   1335.1696      61825.068      5880.7351     -1897.1115      86.119527     -1810.992      -1584.0652    
    297000   1336.9238      61126.211      5880.7351     -1896.9261      86.232668     -1810.6934     -1586.3317    
    298000   1368.8011      59978.146      5880.7351     -1898.6919      88.288785     -1810.4031     -1590.2553    
    299000   1374.9426      59782.666      5880.7351     -1898.7917      88.684917     -1810.1068     -1590.6766    
    300000   1390.8864      60495.335      5880.7351     -1899.5235      89.713302     -1809.8102     -1587.7641    
    301000   1301.1096      63887.354      5880.7351     -1893.4358      83.922627     -1809.5132     -1575.0168    
    302000   1420.989       59208.249      5880.7351     -1900.8679      91.654948     -1809.2129     -1591.891     
    303000   1354.411       61739.24       5880.7351     -1896.2796      87.360607     -1808.9189     -1582.3071    
    304000   1355.7428      62340.487      5880.7351     -1896.0704      87.44651      -1808.6238     -1579.8052    
    305000   1412.7795      59657.571      5880.7351     -1899.4482      91.125423     -1808.3228     -1589.3517    
    306000   1384.124       61550.6        5880.7351     -1897.3118      89.277121     -1808.0347     -1582.1153    
    307000   1366.2837      62379.654      5880.7351     -1895.8623      88.126408     -1807.7359     -1578.7735    
    308000   1462.5776      58609.283      5880.7351     -1901.7631      94.337445     -1807.4257     -1592.3022    
    309000   1413.1025      61254.2        5880.7351     -1898.2737      91.146259     -1807.1275     -1582.296     
    310000   1432.4408      59801.404      5880.7351     -1899.225       92.393592     -1806.8314     -1587.3324    
    311000   1390.9431      62545.6        5880.7351     -1896.246       89.71696      -1806.5291     -1576.9575    
    312000   1481.2027      57715.556      5880.7351     -1901.767       95.53878      -1806.2282     -1594.3852    
    313000   1399.0095      62904.551      5880.7351     -1896.1622      90.237248     -1805.925      -1575.0359    
    314000   1404.1587      62480.722      5880.7351     -1896.1815      90.569378     -1805.6121     -1576.2787    
    315000   1362.8375      65102.181      5880.7351     -1893.2081      87.904123     -1805.304      -1566.3486    
    316000   1457.8556      60971.368      5880.7351     -1899.0295      94.032869     -1804.9966     -1581.2033    
    317000   1473.6276      60111.37       5880.7351     -1899.7447      95.050179     -1804.6945     -1584.0577    
    318000   1472.8775      60714.201      5880.7351     -1899.3803      95.001798     -1804.3785     -1581.529     
    319000   1434.0404      62571.564      5880.7351     -1896.5552      92.496772     -1804.0585     -1574.3916    
    320000   1399.9607      64844.383      5880.7351     -1894.056       90.298602     -1803.7574     -1565.7483    
    321000   1415.2618      63868.07       5880.7351     -1894.729       91.285539     -1803.4435     -1569.0179    
    322000   1367.21        66263.513      5880.7351     -1891.3199      88.186154     -1803.1337     -1559.9157    
    323000   1401.9399      65533.333      5880.7351     -1893.2384      90.426266     -1802.8122     -1562.2743    
    324000   1450.3388      62209.438      5880.7351     -1896.0422      93.548034     -1802.4942     -1574.1565    
    325000   1372.2792      67389.385      5880.7351     -1890.6904      88.513124     -1802.1773     -1554.8268    
    326000   1366.8408      67770.889      5880.7351     -1890.0285      88.162343     -1801.8662     -1553.1154    
    327000   1443.198       64991.432      5880.7351     -1894.6452      93.087445     -1801.5577     -1563.0088    
    328000   1422.3478      65712.493      5880.7351     -1892.975       91.742586     -1801.2324     -1560.0369    
    329000   1392.2319      66528.613      5880.7351     -1890.7042      89.800087     -1800.9041     -1556.7131    
    330000   1429.7511      66483.196      5880.7351     -1892.7957      92.220105     -1800.5756     -1556.5512    
    331000   1400.4485      67406.007      5880.7351     -1890.5782      90.330065     -1800.2482     -1552.8367    
    332000   1482.5282      64101.916      5880.7351     -1895.5454      95.624274     -1799.9211     -1564.6372    
    333000   1511.6854      63299.451      5880.7351     -1897.0971      97.504939     -1799.5922     -1567.2537    
    334000   1430.7634      67251.799      5880.7351     -1891.5575      92.2854       -1799.2721     -1552.4266    
    335000   1452.3069      67504.58       5880.7351     -1892.6275      93.674976     -1798.9525     -1551.1792    
    336000   1505.9059      63562.494      5880.7351     -1895.7531      97.132155     -1798.6209     -1565.3169    
    337000   1438.6423      67670.118      5880.7351     -1891.0851      92.793595     -1798.2915     -1549.9106    
    338000   1442.7436      66451.317      5880.7351     -1891.0233      93.058133     -1797.9652     -1554.0578    
    339000   1435.6025      68252.495      5880.7351     -1890.2358      92.597528     -1797.6383     -1547.1198    
    340000   1499.9588      65995.284      5880.7351     -1894.0601      96.748559     -1797.3116     -1555.0781    
    341000   1435.1296      68760.57       5880.7351     -1889.5386      92.567024     -1796.9716     -1544.5882    
    342000   1521.8475      65251.316      5880.7351     -1894.8057      98.160402     -1796.6453     -1557.1425    
    343000   1450.9737      68914.64       5880.7351     -1889.9005      93.588984     -1796.3116     -1543.3627    
    344000   1424.6091      70023.645      5880.7351     -1887.8658      91.888441     -1795.9774     -1538.958     
    345000   1482.5569      67668.725      5880.7351     -1891.2726      95.626125     -1795.6465     -1547.2707    
    346000   1467.3563      67869.01       5880.7351     -1889.9747      94.645676     -1795.329      -1546.2181    
    347000   1484.6784      69031.966      5880.7351     -1890.7562      95.762965     -1794.9933     -1541.6138    
    348000   1452.9875      69395.771      5880.7351     -1888.3648      93.718874     -1794.6459     -1539.9311    
    349000   1430.3046      71000.162      5880.7351     -1886.5644      92.255809     -1794.3086     -1533.7049    
    350000   1472.3131      70654.581      5880.7351     -1888.9299      94.965392     -1793.9645     -1534.6292    
    351000   1487.0469      69140.369      5880.7351     -1889.5326      95.915734     -1793.6168     -1539.8394    
    352000   1530.2078      67679.71       5880.7351     -1891.9757      98.699647     -1793.2761     -1544.86      
    353000   1524.4294      68219.393      5880.7351     -1891.2717      98.326933     -1792.9448     -1542.5478    
    354000   1571.0122      66560.247      5880.7351     -1893.9452      101.33156     -1792.6136     -1548.3065    
    355000   1585.1025      65656.85       5880.7351     -1894.5017      102.2404      -1792.2613     -1551.27      
    356000   1546.271       68036.692      5880.7351     -1891.6454      99.735737     -1791.9097     -1542.1833    
    357000   1544.3983      68550.853      5880.7351     -1891.1884      99.614947     -1791.5735     -1539.9599    
    358000   1514.4827      70270.78       5880.7351     -1888.9072      97.685366     -1791.2219     -1533.2953    
    359000   1529.7316      70576.655      5880.7351     -1889.5385      98.668934     -1790.8696     -1531.8204    
    360000   1617.8755      66042.023      5880.7351     -1894.8773      104.35428     -1790.523      -1548.118     
    361000   1522.6255      71334.391      5880.7351     -1888.3811      98.210582     -1790.1705     -1528.34      
    362000   1442.772       74701.338      5880.7351     -1882.8778      93.059969     -1789.8178     -1515.6291    
    363000   1541.5893      70081.7        5880.7351     -1888.9134      99.433763     -1789.4796     -1532.2471    
    364000   1515.7887      72646.064      5880.7351     -1886.8838      97.769604     -1789.1142     -1522.4693    
    365000   1553.1024      70411.85       5880.7351     -1888.9427      100.17636     -1788.7663     -1530.322     
    366000   1564.7187      70051.065      5880.7351     -1889.3437      100.92563     -1788.4181     -1531.298     
    367000   1554.731       71004.962      5880.7351     -1888.3397      100.28141     -1788.0583     -1527.437     
    368000   1591.1703      70431.889      5880.7351     -1890.3281      102.63178     -1787.6963     -1529.1784    
    369000   1565.509       71386.557      5880.7351     -1888.3279      100.9766      -1787.3513     -1525.3294    
    370000   1577.6996      71369.745      5880.7351     -1888.7533      101.76291     -1786.9904     -1525.0301    
    371000   1548.7416      72939.6        5880.7351     -1886.5269      99.895093     -1786.6318     -1518.9094    
    372000   1625.2445      69554.446      5880.7351     -1891.0911      104.82959     -1786.2615     -1530.9643    
    373000   1516.4057      74154.996      5880.7351     -1883.7142      97.8094       -1785.9048     -1513.7214    
    374000   1488.9924      77373.868      5880.7351     -1881.5871      96.041222     -1785.5459     -1501.5477    
    375000   1647.4833      70208.419      5880.7351     -1891.4454      106.26401     -1785.1813     -1527.4837    
    376000   1539.5074      75053.272      5880.7351     -1884.1104      99.299476     -1784.8109     -1509.3304    
    377000   1652.2427      69905.387      5880.7351     -1891.0087      106.57099     -1784.4377     -1527.8523    
    378000   1583.6284      72912.545      5880.7351     -1886.217       102.14532     -1784.0717     -1516.4487    
    379000   1567.1727      74599.408      5880.7351     -1884.7938      101.08391     -1783.7099     -1509.8953    
    380000   1512.7957      76702.251      5880.7351     -1880.9181      97.576551     -1783.3416     -1501.8085    
    381000   1559.6482      74861.68       5880.7351     -1883.5689      100.59858     -1782.9703     -1508.193     
    382000   1558.8718      74974.2        5880.7351     -1883.1512      100.5485      -1782.6027     -1507.4125    
    383000   1626.6227      73099.809      5880.7351     -1887.1352      104.91849     -1782.2167     -1513.9063    
    384000   1519.6315      78534.053      5880.7351     -1879.8567      98.017465     -1781.8393     -1493.5827    
    385000   1578.6617      75817.937      5880.7351     -1883.2963      101.82496     -1781.4713     -1503.1841    
    386000   1587.6368      74501.394      5880.7351     -1883.4915      102.40386     -1781.0876     -1507.6327    
    387000   1555.0466      76494.866      5880.7351     -1881.0172      100.30177     -1780.7154     -1499.9436    
    388000   1648.995       73288.825      5880.7351     -1886.706       106.36152     -1780.3444     -1511.3403    
    389000   1595.4725      75778.709      5880.7351     -1882.8837      102.90927     -1779.9744     -1501.8312    
    390000   1594.9082      77200.127      5880.7351     -1882.4773      102.87287     -1779.6045     -1496.244     
    391000   1580.449       77828.711      5880.7351     -1881.1621      101.94025     -1779.2219     -1493.5542    
    392000   1569.6112      77830.115      5880.7351     -1880.0892      101.2412      -1778.848      -1493.1752    
    393000   1623.2472      77296.565      5880.7351     -1883.1574      104.70076     -1778.4567     -1494.7422    
    394000   1577.2171      78767.993      5880.7351     -1879.8025      101.73179     -1778.0707     -1488.9555    
    395000   1662.4411      75701.042      5880.7351     -1884.9068      107.2288      -1777.678      -1499.8199    
    396000   1657.4886      76741.532      5880.7351     -1884.1958      106.90936     -1777.2865     -1495.6093    
    397000   1590.0475      79627.964      5880.7351     -1879.4673      102.55936     -1776.908      -1484.6362    
    398000   1641.3165      77231.537      5880.7351     -1882.3883      105.86624     -1776.5221     -1493.0463    
    399000   1633.8609      78272.777      5880.7351     -1881.503       105.38536     -1776.1176     -1488.82      
    400000   1625.5284      79091.986      5880.7351     -1880.5734      104.8479      -1775.7255     -1485.421     
    401000   1572.5226      81315.233      5880.7351     -1876.7649      101.42899     -1775.3359     -1476.871     
    402000   1654.0623      77475.582      5880.7351     -1881.6438      106.68836     -1774.9555     -1490.584     
    403000   1634.4835      80879.803      5880.7351     -1879.9919      105.42551     -1774.5664     -1477.6998    
    404000   1638.5004      78762.678      5880.7351     -1879.8741      105.68461     -1774.1895     -1485.0937    
    405000   1611.5478      81553.773      5880.7351     -1877.748       103.94614     -1773.8018     -1474.4614    
    406000   1694.0333      78547.809      5880.7351     -1882.6817      109.26652     -1773.4152     -1485.1081    
    407000   1643.2249      79284.821      5880.7351     -1879.0104      105.98934     -1773.0211     -1482.0088    
    408000   1687.123       78002.89       5880.7351     -1881.453       108.82081     -1772.6322     -1486.3252    
    409000   1668.8599      80719.32       5880.7351     -1879.8698      107.64282     -1772.2269     -1475.9494    
    410000   1624.9954      81301.529      5880.7351     -1876.6405      104.81352     -1771.827      -1473.4125    
    411000   1637.8365      81533.856      5880.7351     -1877.0601      105.64178     -1771.4183     -1472.151     
    412000   1607.5255      83966.559      5880.7351     -1874.7039      103.6867      -1771.0172     -1462.8208    
    413000   1669.9057      81573.002      5880.7351     -1878.3424      107.71027     -1770.6321     -1471.2212    
    414000   1649.5528      82241.635      5880.7351     -1876.6171      106.39749     -1770.2196     -1468.3545    
    415000   1713.0464      80216.298      5880.7351     -1880.3088      110.49289     -1769.8159     -1475.3846    
    416000   1732.8902      79044.24       5880.7351     -1881.1802      111.77282     -1769.4074     -1479.2781    
    417000   1797.6733      76322.891      5880.7351     -1884.961       115.95139     -1769.0096     -1488.869     
    418000   1679.2132      82369.588      5880.7351     -1876.9192      108.31061     -1768.6086     -1466.2738    
    419000   1696.0814      82583.216      5880.7351     -1877.5784      109.39863     -1768.1798     -1465.0608    
    420000   1665.8522      83998.31       5880.7351     -1875.2298      107.44882     -1767.781      -1459.468     
    421000   1705.6159      82280.544      5880.7351     -1877.3956      110.01361     -1767.382      -1465.374     
    422000   1669.522       85328.042      5880.7351     -1874.655       107.68552     -1766.9695     -1453.7758    
    423000   1724.7136      82404.1        5880.7351     -1877.8053      111.24543     -1766.5598     -1464.0984    
    424000   1681.3108      84359.161      5880.7351     -1874.5997      108.44592     -1766.1538     -1456.5163    
    425000   1741.461       82163.053      5880.7351     -1878.0521      112.32565     -1765.7264     -1464.1497    
    426000   1638.0838      86245.789      5880.7351     -1870.9778      105.65773     -1765.32       -1448.7577    
    427000   1759.4095      82653.448      5880.7351     -1878.3843      113.48334     -1764.9009     -1461.5242    
    428000   1705.8885      85107.831      5880.7351     -1874.5178      110.03119     -1764.4866     -1452.1011    
    429000   1733.1688      84173.084      5880.7351     -1875.8584      111.7908      -1764.0676     -1455.1131    
    430000   1806.8367      81419.406      5880.7351     -1880.1922      116.54243     -1763.6498     -1464.8026    
    431000   1659.676       88015.034      5880.7351     -1870.2693      107.05045     -1763.2188     -1440.1626    
    432000   1697.0665      87116.745      5880.7351     -1872.2613      109.46217     -1762.7991     -1443.04      
    433000   1809.7688      82105.256      5880.7351     -1879.1098      116.73155     -1762.3783     -1461.0137    
    434000   1676.9722      88773.292      5880.7351     -1870.1223      108.16607     -1761.9563     -1436.1169    
    435000   1706.6649      88041.395      5880.7351     -1871.6161      110.08128     -1761.5348     -1438.3818    
    436000   1715.1431      87994.17       5880.7351     -1871.7132      110.62812     -1761.085      -1438.1054    
    437000   1817.9394      82828.275      5880.7351     -1877.9328      117.25857     -1760.6742     -1456.6558    
    438000   1699.5584      88854.253      5880.7351     -1869.8669      109.6229      -1760.244      -1434.1075    
    439000   1719.5151      88748.132      5880.7351     -1870.7378      110.91012     -1759.8277     -1434.0806    
    440000   1726.5088      88590.108      5880.7351     -1870.7573      111.36122     -1759.3961     -1434.229     
    441000   1741.7781      87731.509      5880.7351     -1871.3178      112.3461      -1758.9717     -1436.9562    
    442000   1790.4172      85652.602      5880.7351     -1874.0318      115.48336     -1758.5485     -1444.1635    
    443000   1862.6898      83531.503      5880.7351     -1878.2626      120.145       -1758.1176     -1451.518     
    444000   1706.7715      90397.882      5880.7351     -1867.7684      110.08815     -1757.6803     -1425.8779    
    445000   1817.9385      86593.887      5880.7351     -1874.5001      117.25851     -1757.2416     -1439.4016    
    446000   1776.4339      87011.196      5880.7351     -1871.3884      114.58143     -1756.807      -1437.4353    
    447000   1799.0603      87846.337      5880.7351     -1872.4128      116.04085     -1756.3719     -1433.9349    
    448000   1741.6315      91021.854      5880.7351     -1868.2697      112.33665     -1755.933      -1421.8404    
    449000   1704.7529      92143.318      5880.7351     -1865.4489      109.95795     -1755.4909     -1417.282     
    450000   1703.259       93033.539      5880.7351     -1864.917       109.86159     -1755.0554     -1413.5789    
    451000   1736.1675      91157.87       5880.7351     -1866.609       111.98422     -1754.6248     -1420.0329    
    452000   1768.2298      90929.996      5880.7351     -1868.2381      114.05226     -1754.1858     -1420.4303    
    453000   1774.2992      90436.706      5880.7351     -1868.1815      114.44374     -1753.7377     -1421.7928    
    454000   1770.3638      91763.12       5880.7351     -1867.4928      114.1899      -1753.3029     -1416.4894    
    455000   1801.4613      91186.852      5880.7351     -1869.0512      116.19572     -1752.8555     -1418.1572    
    456000   1840.873       89293.337      5880.7351     -1871.1323      118.73781     -1752.3945     -1424.6463    
    457000   1763.6589      93048.072      5880.7351     -1865.7083      113.75743     -1751.9509     -1410.421     
    458000   1840.5626      89748.973      5880.7351     -1870.2162      118.71778     -1751.4984     -1422.0778    
    459000   1774.5502      92393.702      5880.7351     -1865.5026      114.45993     -1751.0427     -1411.9147    
    460000   1750.0267      95052.436      5880.7351     -1863.4746      112.87815     -1750.5964     -1401.7096    
    461000   1877.8755      88465.19       5880.7351     -1871.2653      121.12449     -1750.1408     -1425.4323    
    462000   1831.9462      91257.509      5880.7351     -1867.8505      118.16202     -1749.6885     -1414.7309    
    463000   1761.0159      97313.212      5880.7351     -1862.8303      113.58696     -1749.2433     -1392.0584    
    464000   1809.8132      93441.391      5880.7351     -1865.5293      116.73442     -1748.7949     -1405.8214    
    465000   1844.1251      93151.718      5880.7351     -1867.2953      118.94757     -1748.3477     -1406.4375    
    466000   1859.9373      91967.011      5880.7351     -1867.857       119.96746     -1747.8896     -1410.3277    
    467000   1907.5363      90538.541      5880.7351     -1870.4923      123.03764     -1747.4547     -1415.136     
    468000   1899.2202      91304.985      5880.7351     -1869.5047      122.50124     -1747.0035     -1411.8716    
    469000   1965.7307      88692.661      5880.7351     -1873.3225      126.79122     -1746.5312     -1420.9878    
    470000   1892.426       91786.138      5880.7351     -1868.1339      122.06302     -1746.0709     -1409.1729    
    471000   1851.1139      95451.066      5880.7351     -1865.0078      119.39835     -1745.6094     -1395.2595    
    472000   1867.4838      94377.23       5880.7351     -1865.6049      120.45422     -1745.1507     -1398.7422    
    473000   1868.8215      94902.526      5880.7351     -1865.2384      120.5405      -1744.6979     -1396.3614    
    474000   1846.0058      95935.268      5880.7351     -1863.2968      119.06887     -1744.228      -1392.1008    
    475000   1842.5544      97152.648      5880.7351     -1862.5939      118.84626     -1743.7476     -1387.1521    
    476000   1869.1695      96670.411      5880.7351     -1863.8403      120.56295     -1743.2773     -1388.4518    
    477000   1882.7498      94347.194      5880.7351     -1864.2476      121.43889     -1742.8087     -1396.5105    
    478000   1987.7162      91116.328      5880.7351     -1870.5519      128.20931     -1742.3426     -1407.9032    
    479000   1816.7056      99638.41       5880.7351     -1859.0567      117.17899     -1741.8777     -1376.1583    
    480000   1888.8019      97865.66       5880.7351     -1863.2699      121.82926     -1741.4406     -1382.228     
    481000   1921.2057      95014.432      5880.7351     -1864.8907      123.91933     -1740.9714     -1392.2241    
    482000   1978.8185      93411.622      5880.7351     -1868.1295      127.6354      -1740.4941     -1397.6299    
    483000   1972.4112      93707.464      5880.7351     -1867.2427      127.22212     -1740.0206     -1396.0705    
    484000   1837.4253      99880.655      5880.7351     -1858.0769      118.51542     -1739.5615     -1372.9529    
    485000   1909.4482      98102.825      5880.7351     -1862.2444      123.16096     -1739.0834     -1379.0003    
    486000   1871.1372      99506.728      5880.7351     -1859.3009      120.68987     -1738.6111     -1373.375     
    487000   1927.0761      98163.057      5880.7351     -1862.4467      124.29797     -1738.1487     -1377.8445    
    488000   1946.8764      96736.423      5880.7351     -1863.2341      125.57511     -1737.659      -1382.5912    
    489000   1833.2523      103614.91      5880.7351     -1855.4168      118.24626     -1737.1705     -1356.8555    
    490000   1929.5359      98931.516      5880.7351     -1861.1538      124.45663     -1736.6972     -1373.5724    
    491000   1980.2592      97005.015      5880.7351     -1863.9425      127.72833     -1736.2142     -1380.1606    
    492000   1945.9558      98424.418      5880.7351     -1861.2317      125.51573     -1735.716      -1374.4524    
    493000   1990.9155      96011.934      5880.7351     -1863.6518      128.41567     -1735.2362     -1382.8276    
    494000   1944.8717      99761.715      5880.7351     -1860.1935      125.4458      -1734.7477     -1368.5757    
    495000   1964.7085      99017.225      5880.7351     -1860.9947      126.7253      -1734.2694     -1370.83      
    496000   2032.1117      95235.735      5880.7351     -1864.8402      131.07286     -1733.7673     -1384.2078    
    497000   1953.9434      100577.47      5880.7351     -1859.2834      126.03094     -1733.2525     -1364.0863    
    498000   1878.5237      105063.11      5880.7351     -1853.9375      121.16631     -1732.7712     -1347.1405    
    499000   1864.4581      106324.31      5880.7351     -1852.5354      120.25906     -1732.2763     -1342.0165    
    500000   1941.8039      102726.77      5880.7351     -1857.0241      125.24793     -1731.7762     -1354.721     
    501000   2067.5884      97431.849      5880.7351     -1864.6517      133.36113     -1731.2906     -1373.6703    
    502000   1976.2791      102963.56      5880.7351     -1858.2833      127.47161     -1730.8117     -1352.8874    
    503000   1966.5489      101433.71      5880.7351     -1857.1705      126.844       -1730.3265     -1358.0174    
    504000   1975.275       102427.6       5880.7351     -1857.2357      127.40684     -1729.8289     -1353.8718    
    505000   1928.4512      104534.39      5880.7351     -1853.6904      124.38667     -1729.3037     -1345.6137    
    506000   1977.2861      103221.99      5880.7351     -1856.347       127.53656     -1728.8104     -1349.9375    
    507000   2046.94        100746.41      5880.7351     -1860.3384      132.02929     -1728.3091     -1358.5228    
    508000   2005.1726      102153.6       5880.7351     -1857.1394      129.33526     -1727.8042     -1352.8528    
    509000   2067.2353      100751.72      5880.7351     -1860.6538      133.33836     -1727.3154     -1357.5096    
    510000   1968.9058      105332.39      5880.7351     -1853.8028      126.99602     -1726.8068     -1340.1878    
    511000   2045.405       102965.51      5880.7351     -1858.2417      131.93029     -1726.3114     -1348.3799    
    512000   2019.5151      103474.48      5880.7351     -1856.0734      130.26036     -1725.813      -1346.0134    
    513000   1972.2569      107685.26      5880.7351     -1852.521       127.21217     -1725.3088     -1330.0537    
    514000   1955.5969      106533.15      5880.7351     -1850.9489      126.13759     -1724.8113     -1333.7849    
    515000   1902.5489      111781.56      5880.7351     -1847.0068      122.71595     -1724.2908     -1314.0003    
    516000   2008.7922      105112.59      5880.7351     -1853.3486      129.56873     -1723.7798     -1337.9676    
    517000   2013.301       106093.4       5880.7351     -1853.1272      129.85955     -1723.2676     -1333.8554    
    518000   2098.4405      102238.98      5880.7351     -1858.1168      135.35112     -1722.7656     -1347.5009    
    519000   2009.5993      106884.99      5880.7351     -1851.8565      129.62079     -1722.2357     -1329.9179    
    520000   1965.0663      110552.44      5880.7351     -1848.4841      126.74838     -1721.7357     -1315.9567    
    521000   2016.7633      108985.32      5880.7351     -1851.2977      130.08287     -1721.2148     -1321.1879    
    522000   2064.3604      106549.68      5880.7351     -1853.8571      133.15292     -1720.7042     -1329.6171    
    523000   2024.4143      109765.96      5880.7351     -1850.7783      130.57637     -1720.202      -1317.3097    
    524000   2055.268       108875.22      5880.7351     -1852.2588      132.56646     -1719.6923     -1320.0695    
    525000   2013.8706      109828.74      5880.7351     -1849.0586      129.89629     -1719.1623     -1316.0396    
    526000   2098.7837      105576.49      5880.7351     -1854.0197      135.37326     -1718.6464     -1331.1315    
    527000   2086.9546      108206.23      5880.7351     -1852.7412      134.61027     -1718.131      -1320.9636    
    528000   2143.3455      105947.73      5880.7351     -1855.8452      138.24752     -1717.5977     -1328.7201    
    529000   2069.9792      108106.83      5880.7351     -1850.5745      133.51534     -1717.0592     -1320.2567    
    530000   2093.4254      109104.55      5880.7351     -1851.5541      135.02764     -1716.5264     -1316.0618    
    531000   2026.7034      112511.37      5880.7351     -1846.7274      130.72402     -1716.0034     -1303.0342    
    532000   1998.5522      113938.24      5880.7351     -1844.3819      128.90824     -1715.4736     -1297.2672    
    533000   2064.0526      110636.66      5880.7351     -1848.0969      133.13307     -1714.9639     -1308.8757    
    534000   2150.2592      109791.25      5880.7351     -1853.1277      138.69347     -1714.4343     -1311.4491    
    535000   2052.651       111054.15      5880.7351     -1846.3073      132.39766     -1713.9097     -1306.2891    
    536000   2110.0928      111276.53      5880.7351     -1849.473       136.1027      -1713.3703     -1304.9336    
    537000   2002.4135      116057.02      5880.7351     -1841.9986      129.1573      -1712.8413     -1286.8579    
    538000   2196.4337      107454.77      5880.7351     -1853.9818      141.67176     -1712.3101     -1317.9009    
    539000   2133.1123      110734.3       5880.7351     -1849.3625      137.58748     -1711.775      -1305.3284    
    540000   2132.3881      109969.68      5880.7351     -1848.762       137.54076     -1711.2213     -1307.5812    
    541000   2151.6205      112207.53      5880.7351     -1849.4749      138.78127     -1710.6937     -1298.8397    
    542000   2109.7612      113862.6       5880.7351     -1846.2367      136.08131     -1710.1554     -1292.2265    
    543000   2157.3978      111952.81      5880.7351     -1848.7581      139.15391     -1709.6041     -1298.6851    
    544000   2192.029       111224.29      5880.7351     -1850.4453      141.38765     -1709.0576     -1300.8126    
    545000   2130.6764      114854.99      5880.7351     -1845.96        137.43036     -1708.5297     -1286.9583    
    546000   2087.1918      115537.43      5880.7351     -1842.6188      134.62557     -1707.9932     -1283.917     
    547000   2169.131       113681.37      5880.7351     -1847.3636      139.91071     -1707.4528     -1290.1892    
    548000   2133.4883      115297.16      5880.7351     -1844.504       137.61173     -1706.8923     -1283.6979    
    549000   2041.371       118885.28      5880.7351     -1838.0127      131.67009     -1706.3426     -1269.9782    
    550000   2210.0704      111770.05      5880.7351     -1848.3314      142.55133     -1705.78       -1295.5318    
    551000   2218.6982      112638.12      5880.7351     -1848.339       143.10784     -1705.2311     -1291.7967    
    552000   2162.9041      116195.48      5880.7351     -1844.1871      139.50907     -1704.678      -1278.1864    
    553000   2101.7343      118240.91      5880.7351     -1839.6799      135.56357     -1704.1164     -1270.1171    
    554000   2166.6316      115178.62      5880.7351     -1843.3046      139.7495      -1703.5551     -1280.7958    
    555000   2166.9943      117772.74      5880.7351     -1842.7819      139.77289     -1703.009      -1270.7281    
    556000   2137.6429      117502.14      5880.7351     -1840.3301      137.87971     -1702.4504     -1271.1627    
    557000   2191.7198      117119.19      5880.7351     -1843.2526      141.3677      -1701.8849     -1272.0029    
    558000   2137.6034      120621.5       5880.7351     -1839.1922      137.87716     -1701.315      -1258.5779    
    559000   2207.2504      117164.99      5880.7351     -1843.1197      142.36944     -1700.7502     -1270.7001    
    560000   2145.2873      120538.87      5880.7351     -1838.5806      138.37277     -1700.2078     -1257.774     
    561000   2104.5794      121971.1       5880.7351     -1835.3994      135.74708     -1699.6523     -1251.9615    
    562000   2257.6297      117466.41      5880.7351     -1844.7208      145.61895     -1699.1019     -1267.9454    
    563000   2166.9879      118849.35      5880.7351     -1838.3108      139.77248     -1698.5383     -1262.3058    
    564000   2270.395       115625.55      5880.7351     -1844.4256      146.44232     -1697.9833     -1273.5836    
    565000   2272.6724      116128.59      5880.7351     -1844.026       146.58922     -1697.4368     -1271.1907    
    566000   2221.959       119201.19      5880.7351     -1840.1843      143.31816     -1696.8662     -1259.3422    
    567000   2335.4937      115545.63      5880.7351     -1846.9242      150.64124     -1696.283      -1272.1767    
    568000   2222.1728      120840.21      5880.7351     -1839.0484      143.33195     -1695.7165     -1252.1765    
    569000   2281.459       117643.04      5880.7351     -1842.2971      147.15596     -1695.1411     -1263.3363    
    570000   2135.0031      124788.98      5880.7351     -1832.2781      137.70943     -1694.5687     -1236.5349    
    571000   2352.1615      117303.41      5880.7351     -1845.7274      151.71633     -1694.0111     -1263.4528    
    572000   2177.6953      124315.26      5880.7351     -1833.8855      140.46312     -1693.4224     -1237.1274    
    573000   2299.1714      119103.15      5880.7351     -1841.1519      148.29842     -1692.8535     -1255.6894    
    574000   2204.0447      124537.13      5880.7351     -1834.4215      142.16267     -1692.2588     -1235.1495    
    575000   2299.3263      120772.92      5880.7351     -1839.9989      148.30841     -1691.6905     -1248.3975    
    576000   2191.0425      126110.74      5880.7351     -1832.4332      141.32402     -1691.1092     -1228.2239    
    577000   2190.8544      127235.32      5880.7351     -1831.8343      141.31189     -1690.5224     -1223.5094    
    578000   2235.8798      125257.26      5880.7351     -1834.15        144.21607     -1689.9339     -1230.1813    
    579000   2338.4924      121233.08      5880.7351     -1840.1897      150.83466     -1689.355      -1244.3731    
    580000   2271.5055      123066.87      5880.7351     -1835.2862      146.51395     -1688.7723     -1237.0595    
    581000   2304.8467      123855.38      5880.7351     -1836.8486      148.66449     -1688.1841     -1233.5771    
    582000   2194.4924      129168.46      5880.7351     -1829.1452      141.54654     -1687.5987     -1213.4901    
    583000   2281.9164      125637.18      5880.7351     -1834.1991      147.18546     -1687.0136     -1225.8666    
    584000   2254.3901      126985.78      5880.7351     -1831.8648      145.40999     -1686.4548     -1220.3578    
    585000   2215.1608      127498.57      5880.7351     -1828.7261      142.87967     -1685.8464     -1217.8672    
    586000   2226.8163      130296.9       5880.7351     -1828.8821      143.63146     -1685.2506     -1207.0002    
    587000   2305.8497      126880.28      5880.7351     -1833.3915      148.72918     -1684.6624     -1218.9526    
    588000   2347.4803      125153.91      5880.7351     -1835.4772      151.41438     -1684.0628     -1224.6896    
    589000   2369.573       124730.19      5880.7351     -1836.2953      152.83938     -1683.4559     -1225.6379    
    590000   2316.8577      126133.31      5880.7351     -1832.3058      149.4392      -1682.8666     -1219.8985    
    591000   2372.0718      125643.31      5880.7351     -1835.2905      153.00056     -1682.2899     -1221.1204    
    592000   2283.7536      130286.07      5880.7351     -1829.0041      147.30396     -1681.7001     -1203.4894    
    593000   2348.676       127355.88      5880.7351     -1832.6044      151.49151     -1681.1129     -1213.6575    
    594000   2392.333       126383.44      5880.7351     -1834.8037      154.30743     -1680.4963     -1216.6101    
    595000   2344.2739      128634.49      5880.7351     -1831.1244      151.20757     -1679.9169     -1207.7683    
    596000   2198.8814      134863.69      5880.7351     -1821.1422      141.82963     -1679.3126     -1184.2999    
    597000   2430.5148      126798.08      5880.7351     -1835.4853      156.77018     -1678.7151     -1213.307     
    598000   2304.6549      130325.09      5880.7351     -1826.7421      148.65211     -1678.09       -1199.7361    
    599000   2238.2818      133615.83      5880.7351     -1821.8586      144.37099     -1677.4876     -1187.0552    
    600000   2333.5064      131620.13      5880.7351     -1827.3882      150.51306     -1676.8751     -1193.7679    
    601000   2394.9427      131565.6       5880.7351     -1830.7509      154.47575     -1676.2751     -1193.368     
    602000   2436.9342      128745.56      5880.7351     -1832.8582      157.18424     -1675.674      -1203.1178    
    603000   2135.4473      141878.42      5880.7351     -1812.8111      137.73809     -1675.073      -1154.313     
    604000   2444.4316      128904.73      5880.7351     -1832.1248      157.66782     -1674.457      -1201.3165    
    605000   2336.0612      135349.66      5880.7351     -1824.5346      150.67785     -1673.8567     -1177.0603    
    606000   2372.849       132556.74      5880.7351     -1826.3032      153.05069     -1673.2525     -1186.7074    
    607000   2463.97        130226.27      5880.7351     -1831.5608      158.92807     -1672.6327     -1194.6416    
    608000   2255.9949      138596.62      5880.7351     -1817.5263      145.5135      -1672.0128     -1163.2986    
    609000   2355.0802      136732         5880.7351     -1823.2943      151.90459     -1671.3897     -1169.5195    
    610000   2264.4461      137987.02      5880.7351     -1816.8245      146.05861     -1670.7659     -1164.2891    
    611000   2394.9492      134826.85      5880.7351     -1824.6263      154.47617     -1670.1501     -1175.2727    
    612000   2328.1958      138635.92      5880.7351     -1819.7088      150.17052     -1669.5382     -1160.6797    
    613000   2338.1352      137439.07      5880.7351     -1819.7369      150.81162     -1668.9252     -1164.4597    
    614000   2408.799       134930.51      5880.7351     -1823.6542      155.36949     -1668.2848     -1173.0268    
    615000   2258.4034      142456.32      5880.7351     -1813.346       145.66885     -1667.6771     -1144.796     
    616000   2361.6108      139660.13      5880.7351     -1819.3952      152.32581     -1667.0694     -1154.4515    
    617000   2459.9754      133949.47      5880.7351     -1825.0966      158.67041     -1666.4262     -1174.7691    
    618000   2344.9012      139115.53      5880.7351     -1817.0453      151.24803     -1665.7972     -1155.1784    
    619000   2423.3268      136980.9       5880.7351     -1821.4753      156.30655     -1665.1688     -1162.385     
    620000   2341.4806      141241.65      5880.7351     -1815.5712      151.0274      -1664.5438     -1146.1211    
    621000   2556.1356      131761.28      5880.7351     -1828.7901      164.87282     -1663.9173     -1180.2919    
    622000   2347.9509      142340.86      5880.7351     -1814.7323      151.44474     -1663.2875     -1140.8302    
    623000   2422.7247      139645.94      5880.7351     -1818.9221      156.26771     -1662.6544     -1150.0886    
    624000   2377.6373      143189.19      5880.7351     -1815.3808      153.35954     -1662.0212     -1136.4501    
    625000   2440.8002      141731.03      5880.7351     -1818.8555      157.4336      -1661.4219     -1141.2029    
    626000   2440.2276      140765.67      5880.7351     -1818.1989      157.39667     -1660.8023     -1144.1266    
    627000   2527.4327      136994.77      5880.7351     -1823.2171      163.02146     -1660.1956     -1157.3609    
    628000   2349.9598      146649.84      5880.7351     -1811.1565      151.57432     -1659.5822     -1121.3089    
    629000   2496.3643      141323.21      5880.7351     -1819.9776      161.01753     -1658.96       -1140.238     
    630000   2513.5633      139693.96      5880.7351     -1820.472       162.12688     -1658.3451     -1145.6031    
    631000   2385.886       145369.75      5880.7351     -1811.609       153.89158     -1657.7174     -1124.1426    
    632000   2457.7773      142871.45      5880.7351     -1815.6136      158.52863     -1657.085      -1132.6801    
    633000   2378.7783      146433.54      5880.7351     -1809.9238      153.43314     -1656.4906     -1119.0112    
    634000   2355.068       147958.85      5880.7351     -1807.7629      151.9038      -1655.8591     -1112.7811    
    635000   2517.4403      142754.65      5880.7351     -1817.6054      162.37695     -1655.2284     -1131.2523    
    636000   2538.4258      142255.86      5880.7351     -1818.314       163.73052     -1654.5835     -1132.4381    
    637000   2369.7601      149174.52      5880.7351     -1806.7867      152.85145     -1653.9352     -1106.3951    
    638000   2391.9879      150398.82      5880.7351     -1807.5686      154.28516     -1653.2834     -1101.2496    
    639000   2449.324       147245.49      5880.7351     -1810.6022      157.98339     -1652.6189     -1112.1592    
    640000   2476.5569      147265.72      5880.7351     -1811.7042      159.73993     -1651.9643     -1111.4304    
    641000   2563.0525      142773.54      5880.7351     -1816.6284      165.31897     -1651.3094     -1127.2639    
    642000   2622.8788      141280.23      5880.7351     -1819.8374      169.17781     -1650.6596     -1132.0953    
    643000   2451.5099      150270.61      5880.7351     -1808.1124      158.12438     -1649.988      -1098.4248    
    644000   2533.5881      146495.02      5880.7351     -1812.7542      163.41849     -1649.3357     -1111.6306    
    645000   2603.3276      145323.88      5880.7351     -1816.5904      167.91674     -1648.6737     -1115.2672    
    646000   2537.6766      146172.73      5880.7351     -1811.7121      163.6822      -1648.0299     -1111.5078    
    647000   2442.727       151802.07      5880.7351     -1804.9409      157.55788     -1647.3831     -1090.1986    
    648000   2524.4972      149143.07      5880.7351     -1809.5543      162.83212     -1646.7221     -1099.2975    
    649000   2492.3349      151332.55      5880.7351     -1806.8063      160.75763     -1646.0486     -1090.5876    
    650000   2584.6485      147177.39      5880.7351     -1812.0957      166.71193     -1645.3838     -1105.1741    
    651000   2443.5373      153554.66      5880.7351     -1802.3348      157.61014     -1644.7246     -1081.1074    
    652000   2668.4915      145648.65      5880.7351     -1816.2002      172.11987     -1644.0803     -1109.4819    
    653000   2514.8961      153431.42      5880.7351     -1805.6325      162.21284     -1643.4196     -1080.2547    
    654000   2485.9619      155624.11      5880.7351     -1803.1237      160.34656     -1642.7771     -1071.564     
    655000   2393.1403      157554.32      5880.7351     -1796.5011      154.35949     -1642.1416     -1063.8437    
    656000   2411.9583      157727.18      5880.7351     -1797.0757      155.57327     -1641.5025     -1062.5701    
    657000   2676.6061      148098.98      5880.7351     -1813.5004      172.64327     -1640.8571     -1097.2648    
    658000   2360.7087      161297.83      5880.7351     -1792.4765      152.26763     -1640.2089     -1048.1706    
    659000   2434.8593      156904.72      5880.7351     -1796.6085      157.0504      -1639.5581     -1063.6446    
    660000   2491.2379      157379.51      5880.7351     -1799.5653      160.68687     -1638.8784     -1061.2222    
    661000   2296.9262      166491.82      5880.7351     -1786.3704      148.15361     -1638.2168     -1027.1142    
    662000   2532.6264      155860.33      5880.7351     -1800.94        163.35646     -1637.5835     -1065.5034    
    663000   2219.6679      171090.42      5880.7351     -1780.1342      143.17039     -1636.9638     -1008.9821    
    664000   2059.7432      177507.05      5880.7351     -1769.2416      132.85511     -1636.3865     -984.85284    
    665000   2160.7281      172037.92      5880.7351     -1775.1707      139.36872     -1635.802      -1004.3426    
    666000   2214.2783      169638.51      5880.7351     -1778.0461      142.82275     -1635.2233     -1012.5709    
    667000   2153.1742      173825.24      5880.7351     -1773.5186      138.88149     -1634.6371     -996.61741    
[...]
    840000   2992.5329      241597.42      5880.7351     -1700.0399      193.0208      -1507.0191     -620.2439     
    841000   3060.6923      239665.86      5880.7351     -1703.5666      197.41714     -1506.1495     -626.46394    
    842000   3177.6671      237424.48      5880.7351     -1710.2575      204.96211     -1505.2954     -633.83679    
    843000   3125.5792      239941.35      5880.7351     -1706.0173      201.6024      -1504.4149     -623.71822    
    844000   3218.3922      236976.23      5880.7351     -1711.1086      207.58891     -1503.5197     -633.70634    
    845000   3150.1648      239519.54      5880.7351     -1705.823       203.18819     -1502.6348     -623.48635    
    846000   3244.9904      239119.2       5880.7351     -1711.0686      209.30451     -1501.7641     -624.08507    
    847000   3220.5573      238826.69      5880.7351     -1708.5885      207.72856     -1500.8599     -624.25453    
    848000   3166.0332      239346.28      5880.7351     -1704.1466      204.21171     -1499.9349     -621.42238    
    849000   3191.0174      239811.05      5880.7351     -1704.868       205.82322     -1499.0447     -618.82633    
    850000   3221.0063      239828.94      5880.7351     -1705.9051      207.75752     -1498.1476     -617.86353    
    851000   3170.6773      242605.58      5880.7351     -1701.7548      204.51126     -1497.2436     -606.76791    
    852000   3259.8202      239299.14      5880.7351     -1706.5936      210.26105     -1496.3326     -617.99314    
    853000   3318.471       238156.96      5880.7351     -1709.4827      214.04407     -1495.4386     -621.29143    
    854000   3319.2177      238044.8       5880.7351     -1708.6348      214.09224     -1494.5426     -620.80717    
    855000   3306.4978      241071.27      5880.7351     -1706.9229      213.2718      -1493.6511     -608.80712    
    856000   3249.0577      245715.36      5880.7351     -1702.2878      209.56686     -1492.7209     -590.83091    
    857000   3372.3739      238458.44      5880.7351     -1709.3263      217.52086     -1491.8054     -616.5517     
    858000   3297.1149      242276.59      5880.7351     -1703.5857      212.66659     -1490.9191     -601.65098    
    859000   3218.2257      245463.18      5880.7351     -1697.5656      207.57817     -1489.9875     -589.02311    
    860000   3303.8957      243801.93      5880.7351     -1702.2022      213.10395     -1489.0983     -594.23146    
    861000   3273.8205      241811.3       5880.7351     -1699.3672      211.16408     -1488.2031     -600.64285    
    862000   3360.9055      241547.14      5880.7351     -1704.0739      216.78114     -1487.2928     -600.70212    
    863000   3182.3963      246854.35      5880.7351     -1691.6526      205.26715     -1486.3855     -580.31485    
    864000   3306.8426      247310.78      5880.7351     -1698.7923      213.29404     -1485.4983     -577.75236    
    865000   3215.6145      252897.75      5880.7351     -1691.9942      207.40975     -1484.5845     -556.33176    
    866000   3314.6401      249922.09      5880.7351     -1697.4662      213.79698     -1483.6692     -566.33855    
    867000   3329.8829      247619.92      5880.7351     -1697.5323      214.78015     -1482.7522     -573.87157    
    868000   3365.71        248013.23      5880.7351     -1698.9619      217.09103     -1481.8709     -571.54661    
    869000   3426.0983      246146         5880.7351     -1701.9323      220.98612     -1480.9462     -577.47552    
    870000   3517.8477      241510.17      5880.7351     -1706.9486      226.90404     -1480.0446     -593.58957    
    871000   3351.6232      249226.81      5880.7351     -1695.3481      216.18242     -1479.1657     -564.38704    
    872000   3477.8909      245882.17      5880.7351     -1702.5882      224.32679     -1478.2614     -575.75919    
    873000   3454.8522      246169         5880.7351     -1700.1775      222.84077     -1477.3368     -573.78171    
    874000   3353.1443      250035.53      5880.7351     -1692.6877      216.28053     -1476.4072     -558.66013    
    875000   3473.0052      248129.51      5880.7351     -1699.5227      224.01166     -1475.511      -564.75994    
    876000   3433.8156      249549.87      5880.7351     -1696.0724      221.4839      -1474.5885     -558.62401    
    877000   3478.0901      250125.86      5880.7351     -1697.9795      224.33963     -1473.6399     -555.56128    
    878000   3583.9092      245380.31      5880.7351     -1703.8914      231.16505     -1472.7263     -572.06616    
    879000   3426.8171      254549.55      5880.7351     -1692.8216      221.03249     -1471.7891     -537.47348    
    880000   3341.8909      257959.24      5880.7351     -1686.3787      215.55468     -1470.824      -523.99327    
    881000   3628.9402      244736.01      5880.7351     -1703.9679      234.06959     -1469.8983     -571.60299    
    882000   3655.5827      245741.9       5880.7351     -1704.7291      235.78805     -1468.941      -566.95364    
    883000   3422.8204      256111.36      5880.7351     -1688.7914      220.7747      -1468.0167     -527.9685     
    884000   3566.9693      248478.84      5880.7351     -1697.1625      230.07242     -1467.0901     -555.05687    
    885000   3486.6149      256074.49      5880.7351     -1691.0491      224.88949     -1466.1596     -526.24674    
    886000   3561.2732      253117.82      5880.7351     -1694.9454      229.70502     -1465.2404     -536.17993    
    887000   3492.2521      254342.92      5880.7351     -1689.5522      225.2531      -1464.2991     -530.742      
    888000   3579.5423      251392.94      5880.7351     -1694.2778      230.88339     -1463.3944     -540.66502    
    889000   3564.5477      253103.65      5880.7351     -1692.3332      229.91622     -1462.417      -533.40854    
    890000   3514.1256      257188.6       5880.7351     -1688.1054      226.66396     -1461.4414     -517.43929    
    891000   3497.1792      260241.3       5880.7351     -1686.067       225.5709      -1460.4961     -505.28914    
    892000   3389.6406      260956.93      5880.7351     -1678.1563      218.63457     -1459.5217     -501.68803    
    893000   3459.3382      262482.34      5880.7351     -1681.7017      223.13013     -1458.5715     -495.13891    
    894000   3886.218       247721.69      5880.7351     -1708.2809      250.66422     -1457.6167     -548.36254    
    895000   3565.3536      258972.64      5880.7351     -1686.5878      229.9682      -1456.6196     -506.06924    
    896000   3531.819       260305.12      5880.7351     -1683.4688      227.8052      -1455.6636     -500.22237    
    897000   3541.9793      260429.5       5880.7351     -1683.1698      228.46054     -1454.7093     -498.81151    
    898000   3676.4445      254295.9       5880.7351     -1690.8721      237.13366     -1453.7385     -520.3539     
    899000   3775.1361      255025.36      5880.7351     -1696.2621      243.49935     -1452.7627     -516.70069    
    900000   3613.3123      259261.86      5880.7351     -1684.8488      233.06158     -1451.7872     -500.17522    
    901000   3700.4774      259641.44      5880.7351     -1689.5077      238.6838      -1450.8239     -497.81873    
    902000   3495.9269      269870.34      5880.7351     -1675.3675      225.49012     -1449.8774     -459.32732    
    903000   3642.5986      262221.34      5880.7351     -1683.8181      234.95057     -1448.8675     -486.39287    
    904000   3596.3048      262745.65      5880.7351     -1679.8759      231.96458     -1447.9113     -483.51218    
    905000   3722.3597      259933.67      5880.7351     -1687.0319      240.09522     -1446.9367     -492.85883    
    906000   3558.9688      267469.64      5880.7351     -1675.4931      229.55638     -1445.9367     -464.19832    
    907000   3565.1435      267151.36      5880.7351     -1674.9123      229.95465     -1444.9576     -464.38751    
    908000   3703.6543      264296.3       5880.7351     -1682.8613      238.88871     -1443.9726     -473.88191    
    909000   3725.1572      262973.45      5880.7351     -1683.2712      240.27566     -1442.9955     -477.76027    
    910000   3644.6357      264792.23      5880.7351     -1677.063       235.08196     -1441.981      -470.06999    
    911000   3895.0939      257910.23      5880.7351     -1692.204       251.23672     -1440.9673     -494.31639    
    912000   3846.8069      263326.38      5880.7351     -1688.0953      248.12217     -1439.9731     -473.44244    
    913000   3787.7055      262928.17      5880.7351     -1683.3065      244.31008     -1438.9964     -473.9274     
    914000   3646.4199      269530.69      5880.7351     -1673.2099      235.19705     -1438.0128     -448.70947    
    915000   3620.792       269924.81      5880.7351     -1670.5769      233.54402     -1437.0329     -446.28289    
    916000   3715.7991      270091.72      5880.7351     -1675.7422      239.67206     -1436.0701     -444.70753    
    917000   3735.3345      269687.28      5880.7351     -1675.9914      240.93211     -1435.0592     -445.18112    
    918000   3606.659       273588.62      5880.7351     -1666.7011      232.63244     -1434.0686     -429.87077    
    919000   3863.9356      263998.41      5880.7351     -1682.2866      249.22699     -1433.0596     -464.06227    
    920000   3706.3509      270820.35      5880.7351     -1671.1427      239.06265     -1432.0801     -438.04304    
    921000   3815.6356      269364.55      5880.7351     -1677.1763      246.1116      -1431.0647     -442.37118    
    922000   3725.2725      272129.28      5880.7351     -1670.3092      240.2831      -1430.026      -431.18466    
    923000   3692.0603      276408.75      5880.7351     -1667.1395      238.14089     -1428.9986     -414.44957    
    924000   3895.2609      269870.27      5880.7351     -1679.2417      251.2475      -1427.9942     -437.44442    
    925000   3701.3943      276097.34      5880.7351     -1665.7013      238.74294     -1426.9583     -413.55229    
    926000   3812.1351      275390         5880.7351     -1671.83        245.88581     -1425.9442     -415.13445    
    927000   3721.5616      277690.18      5880.7351     -1664.9892      240.04375     -1424.9455     -405.69298    
    928000   3903.3002      268537.61      5880.7351     -1675.7151      251.76603     -1423.9491     -438.29075    
    929000   3778.4101      276674.78      5880.7351     -1666.6559      243.71052     -1422.9454     -407.41989    
    930000   4044.862       266124.75      5880.7351     -1682.8256      260.89689     -1421.9287     -445.12677    
    931000   3807.4829      281945.8       5880.7351     -1666.4769      245.58574     -1420.8911     -386.01854    
    932000   3709.467       279923.37      5880.7351     -1659.1111      239.26363     -1419.8475     -392.39814    
    933000   3766.3249      280052.48      5880.7351     -1661.7551      242.93101     -1418.8241     -390.9009     
    934000   3941.4676      273725.12      5880.7351     -1671.9911      254.22786     -1417.7632     -413.06432    
    935000   3840.1769      283194.32      5880.7351     -1664.4464      247.69453     -1416.7518     -377.29659    
    936000   3970.9105      275571.4       5880.7351     -1671.8744      256.12695     -1415.7475     -404.27187    
    937000   3871.5669      278417.27      5880.7351     -1664.4291      249.71921     -1414.7099     -392.78867    
    938000   4019.6996      275138.43      5880.7351     -1672.9713      259.27389     -1413.6974     -403.81104    
    939000   3885.9419      278664.27      5880.7351     -1663.2904      250.64641     -1412.6439     -389.81609    
    940000   3982.6534      279999.05      5880.7351     -1668.4934      256.88438     -1411.609      -383.8819     
    941000   3920.8022      281575.39      5880.7351     -1663.492       252.89493     -1410.5971     -377.08407    
    942000   3932.8161      279357.7       5880.7351     -1663.2121      253.66984     -1409.5423     -384.16924    
    943000   4051.3889      278696.31      5880.7351     -1669.8699      261.31787     -1408.552      -385.60659    
    944000   4063.1518      274869.56      5880.7351     -1669.5896      262.07659     -1407.513      -398.61351    
    945000   3907.7547      286459.89      5880.7351     -1658.5084      252.05335     -1406.4551     -355.01365    
    946000   4192.62        275044.34      5880.7351     -1675.8366      270.4274      -1405.4092     -395.86816    
    947000   4063.8848      282453.83      5880.7351     -1666.5117      262.12387     -1404.3879     -367.65056    
    948000   4107.6119      279165.01      5880.7351     -1668.2631      264.94431     -1403.3188     -378.65299    
    949000   4121.8445      279458.24      5880.7351     -1668.115       265.86232     -1402.2527     -376.51059    
    950000   3955.2745      287577.25      5880.7351     -1656.2787      255.11842     -1401.1603     -345.61762    
    951000   4085.4435      281405.67      5880.7351     -1663.6126      263.51443     -1400.0982     -367.20811    
    952000   4079.5153      282015.55      5880.7351     -1662.1619      263.13205     -1399.0298     -363.90121    
    953000   4141.9824      280404.73      5880.7351     -1665.1231      267.16123     -1397.9619     -368.74573    
    954000   4101.258       287951.4       5880.7351     -1661.4426      264.53447     -1396.9081     -339.99216    
    955000   4063.5379      290366.52      5880.7351     -1657.9381      262.1015      -1395.8366     -330.05599    
    956000   3923.5126      291840.88      5880.7351     -1647.8391      253.06975     -1394.7694     -323.57723    
    957000   4030.0891      289887.49      5880.7351     -1653.6402      259.94402     -1393.6962     -329.6739     
    958000   4206.9974      282368.63      5880.7351     -1663.9847      271.35475     -1392.6299     -356.20531    
    959000   4090.7097      290764.27      5880.7351     -1655.4358      263.8541      -1391.5817     -324.34118    
    960000   4073.9794      288836.13      5880.7351     -1653.2962      262.77498     -1390.5212     -330.35786    
    961000   4042.5109      293960.55      5880.7351     -1650.173       260.74523     -1389.4278     -310.45544    
    962000   4132.9126      288814.77      5880.7351     -1654.9321      266.57622     -1388.3559     -328.27096    
    963000   4055.3623      290702.34      5880.7351     -1648.8777      261.57417     -1387.3035     -320.29029    
    964000   4053.918       292978.61      5880.7351     -1647.7308      261.481       -1386.2498     -310.8816     
    965000   4276.5128      287812.32      5880.7351     -1661.0376      275.83855     -1385.199      -328.79355    
    966000   4087.1546      293323.35      5880.7351     -1647.7789      263.62479     -1384.1541     -307.52054    
    967000   4133.907       294107.32      5880.7351     -1649.7398      266.64036     -1383.0994     -303.58836    
    968000   3919.2461      302145.09      5880.7351     -1634.7996      252.79456     -1382.005      -272.99163    
    969000   4266.2581      292436.64      5880.7351     -1656.147       275.17712     -1380.9699     -307.59099    
    970000   4316.3214      289781.74      5880.7351     -1658.318       278.40624     -1379.9117     -316.27758    
    971000   4166.762       295032.92      5880.7351     -1647.5759      268.75954     -1378.8164     -295.90796    
    972000   3946.1082      305233.83      5880.7351     -1632.2412      254.52719     -1377.714      -257.36346    
    973000   4113.0586      297601.89      5880.7351     -1641.9534      265.29562     -1376.6578     -284.32005    
    974000   4322.9249      288868.68      5880.7351     -1654.4049      278.83217     -1375.5728     -315.28994    
    975000   4140.2504      301622.86      5880.7351     -1641.5424      267.04952     -1374.4929     -267.39627    
    976000   4343.0689      292621.52      5880.7351     -1653.5158      280.13147     -1373.3843     -299.32683    
    977000   4184.5862      303011.25      5880.7351     -1642.2112      269.90921     -1372.302      -260.10936    
    978000   4298.2582      296982.07      5880.7351     -1648.4476      277.24114     -1371.2064     -281.1437     
    979000   4394.7238      292375.15      5880.7351     -1653.5764      283.46325     -1370.1131     -296.95994    
    980000   4280.8177      296923.96      5880.7351     -1645.0897      276.11622     -1368.9735     -279.12408    
    981000   4241.3878      297611.32      5880.7351     -1641.4519      273.57296     -1367.879      -275.5066     
    982000   4275.73        299887.55      5880.7351     -1642.5757      275.78806     -1366.7876     -266.06046    
    983000   4257.5306      304458.29      5880.7351     -1640.3349      274.61418     -1365.7207     -248.21677    
    984000   4381.8003      294327.22      5880.7351     -1647.2488      282.62968     -1364.6192     -284.30096    
    985000   4320.6707      300561.71      5880.7351     -1642.2         278.68677     -1363.5133     -260.31158    
    986000   4463.7171      298324.96      5880.7351     -1650.326       287.91338     -1362.4126     -267.4208     
    987000   4450.7096      299161.15      5880.7351     -1648.4118      287.07439     -1361.3375     -263.27648    
    988000   4486.1906      299680.1       5880.7351     -1649.6386      289.36294     -1360.2756     -260.30985    
    989000   4555.1335      298495         5880.7351     -1653.0087      293.80981     -1359.1989     -263.58302    
    990000   4310.7202      304704.14      5880.7351     -1636.1771      278.04495     -1358.1321     -239.7258     
    991000   4301.9804      304603.4       5880.7351     -1634.5336      277.48123     -1357.0523     -239.01575    
    992000   4452.3641      299058.48      5880.7351     -1643.1499      287.1811      -1355.9688     -258.28465    
    993000   4310.7556      310416.64      5880.7351     -1632.8659      278.04724     -1354.8186     -215.44475    
    994000   4446.7026      302107.12      5880.7351     -1640.5286      286.81593     -1353.7127     -244.83867    
    995000   4501.7099      302020.02      5880.7351     -1642.9735      290.36394     -1352.6095     -244.05519    
    996000   4451.0221      304388.63      5880.7351     -1638.5759      287.09454     -1351.4814     -234.23312    
    997000   4690.9336      298227.73      5880.7351     -1652.915       302.56903     -1350.346      -255.71111    
    998000   4390.3556      310267.45      5880.7351     -1632.3965      283.1815      -1349.215      -210.38874    
    999000   4478.9065      306385.97      5880.7351     -1636.9744      288.89311     -1348.0813     -223.50182    
   1000000   4292.9393      312303.75      5880.7351     -1623.8296      276.89807     -1346.9315     -200.63104    
Loop time of 2420.21 on 8 procs for 1000000 steps with 500 atoms

Performance: 35.699 ns/day, 0.672 hours/ns, 413.188 timesteps/s
22.0% CPU use with 8 MPI tasks x 1 OpenMP threads

MPI task timing breakdown:
Section |  min time  |  avg time  |  max time  |%varavg| %total
---------------------------------------------------------------
Pair    | 936.97     | 956.96     | 977.33     |  38.5 | 39.54
Neigh   | 8.1152     | 8.1569     | 8.1967     |   1.0 |  0.34
Comm    | 810.62     | 844.22     | 870.41     |  63.2 | 34.88
Output  | 3.0879     | 3.0947     | 3.0983     |   0.2 |  0.13
Modify  | 530.29     | 576.76     | 630.17     | 122.8 | 23.83
Other   |            | 31.01      |            |       |  1.28

Nlocal:           62.5 ave          67 max          58 min
Histogram: 1 0 1 1 0 3 0 1 0 1
Nghost:         1393.5 ave        1425 max        1377 min
Histogram: 3 0 1 1 1 0 1 0 0 1
Neighs:        6529.62 ave        7026 max        6048 min
Histogram: 1 0 1 1 3 0 0 0 0 2

Total # of neighbors = 52237
Ave neighs/atom = 104.474
Neighbor list builds = 50000
Dangerous builds not checked
Total wall time: 0:40:20
