ITEM: TIMESTEP
0
ITEM: NUMBER OF ATOMS
864
ITEM: BOX BOUNDS pp pp pp
0.0000000000000000e+00 2.0000000000000000e+01
0.0000000000000000e+00 2.0000000000000000e+01
0.0000000000000000e+00 2.0000000000000000e+01
ITEM: ATOMS id type xs ys zs
1 1 0.0325417 0.0325417 0.0258378
2 1 0.115875 0.115875 0.0258378
3 1 0.115875 0.0325417 0.109989
4 1 0.0325417 0.115875 0.109989
5 1 0.199208 0.0325417 0.0258378
8 1 0.199208 0.115875 0.109989
13 1 0.0325417 0.199208 0.0258378
15 1 0.115875 0.199208 0.109989
17 1 0.199208 0.199208 0.0258378
37 1 0.0325417 0.0325417 0.195116
38 1 0.115875 0.115875 0.195116
41 1 0.199208 0.0325417 0.195116
49 1 0.0325417 0.199208 0.195116
53 1 0.199208 0.199208 0.195116
6 1 0.282542 0.115875 0.0258378
7 1 0.282542 0.0325417 0.109989
9 1 0.365875 0.0325417 0.0258378
10 1 0.449208 0.115875 0.0258378
11 1 0.449208 0.0325417 0.109989
12 1 0.365875 0.115875 0.109989
19 1 0.282542 0.199208 0.109989
21 1 0.365875 0.199208 0.0258378
23 1 0.449208 0.199208 0.109989
42 1 0.282542 0.115875 0.195116
45 1 0.365875 0.0325417 0.195116
46 1 0.449208 0.115875 0.195116
57 1 0.365875 0.199208 0.195116
14 1 0.115875 0.282542 0.0258378
16 1 0.0325417 0.282542 0.109989
20 1 0.199208 0.282542 0.109989
25 1 0.0325417 0.365875 0.0258378
26 1 0.115875 0.449208 0.0258378
27 1 0.115875 0.365875 0.109989
28 1 0.0325417 0.449208 0.109989
29 1 0.199208 0.365875 0.0258378
32 1 0.199208 0.449208 0.109989
50 1 0.115875 0.282542 0.195116
61 1 0.0325417 0.365875 0.195116
62 1 0.115875 0.449208 0.195116
65 1 0.199208 0.365875 0.195116
18 1 0.282542 0.282542 0.0258378
22 1 0.449208 0.282542 0.0258378
24 1 0.365875 0.282542 0.109989
30 1 0.282542 0.449208 0.0258378
31 1 0.282542 0.365875 0.109989
33 1 0.365875 0.365875 0.0258378
34 1 0.449208 0.449208 0.0258378
35 1 0.449208 0.365875 0.109989
36 1 0.365875 0.449208 0.109989
54 1 0.282542 0.282542 0.195116
58 1 0.449208 0.282542 0.195116
66 1 0.282542 0.449208 0.195116
69 1 0.365875 0.365875 0.195116
70 1 0.449208 0.449208 0.195116
39 1 0.115875 0.0325417 0.280634
40 1 0.0325417 0.115875 0.280634
44 1 0.199208 0.115875 0.280634
51 1 0.115875 0.199208 0.280634
73 1 0.0325417 0.0325417 0.365761
74 1 0.115875 0.115875 0.365761
75 1 0.115875 0.0325417 0.449912
76 1 0.0325417 0.115875 0.449912
77 1 0.199208 0.0325417 0.365761
80 1 0.199208 0.115875 0.449912
85 1 0.0325417 0.199208 0.365761
87 1 0.115875 0.199208 0.449912
89 1 0.199208 0.199208 0.365761
43 1 0.282542 0.0325417 0.280634
47 1 0.449208 0.0325417 0.280634
48 1 0.365875 0.115875 0.280634
55 1 0.282542 0.199208 0.280634
59 1 0.449208 0.199208 0.280634
78 1 0.282542 0.115875 0.365761
79 1 0.282542 0.0325417 0.449912
81 1 0.365875 0.0325417 0.365761
82 1 0.449208 0.115875 0.365761
83 1 0.449208 0.0325417 0.449912
84 1 0.365875 0.115875 0.449912
91 1 0.282542 0.199208 0.449912
93 1 0.365875 0.199208 0.365761
95 1 0.449208 0.199208 0.449912
52 1 0.0325417 0.282542 0.280634
56 1 0.199208 0.282542 0.280634
63 1 0.115875 0.365875 0.280634
64 1 0.0325417 0.449208 0.280634
68 1 0.199208 0.449208 0.280634
86 1 0.115875 0.282542 0.365761
88 1 0.0325417 0.282542 0.449912
92 1 0.199208 0.282542 0.449912
97 1 0.0325417 0.365875 0.365761
98 1 0.115875 0.449208 0.365761
99 1 0.115875 0.365875 0.449912
100 1 0.0325417 0.449208 0.449912
101 1 0.199208 0.365875 0.365761
104 1 0.199208 0.449208 0.449912
60 1 0.365875 0.282542 0.280634
67 1 0.282542 0.365875 0.280634
71 1 0.449208 0.365875 0.280634
72 1 0.365875 0.449208 0.280634
90 1 0.282542 0.282542 0.365761
94 1 0.449208 0.282542 0.365761
96 1 0.365875 0.282542 0.449912
102 1 0.282542 0.449208 0.365761
103 1 0.282542 0.365875 0.449912
105 1 0.365875 0.365875 0.365761
106 1 0.449208 0.449208 0.365761
107 1 0.449208 0.365875 0.449912
108 1 0.365875 0.449208 0.449912
433 2 0.0325417 0.0325417 0.535808
434 2 0.115875 0.115875 0.535808
435 2 0.115875 0.0325417 0.617385
436 2 0.0325417 0.115875 0.617385
437 2 0.199208 0.0325417 0.535808
440 2 0.199208 0.115875 0.617385
445 2 0.0325417 0.199208 0.535808
447 2 0.115875 0.199208 0.617385
449 2 0.199208 0.199208 0.535808
469 2 0.0325417 0.0325417 0.698021
470 2 0.115875 0.115875 0.698021
473 2 0.199208 0.0325417 0.698021
481 2 0.0325417 0.199208 0.698021
485 2 0.199208 0.199208 0.698021
438 2 0.282542 0.115875 0.535808
439 2 0.282542 0.0325417 0.617385
441 2 0.365875 0.0325417 0.535808
442 2 0.449208 0.115875 0.535808
443 2 0.449208 0.0325417 0.617385
444 2 0.365875 0.115875 0.617385
451 2 0.282542 0.199208 0.617385
453 2 0.365875 0.199208 0.535808
455 2 0.449208 0.199208 0.617385
474 2 0.282542 0.115875 0.698021
477 2 0.365875 0.0325417 0.698021
478 2 0.449208 0.115875 0.698021
489 2 0.365875 0.199208 0.698021
446 2 0.115875 0.282542 0.535808
448 2 0.0325417 0.282542 0.617385
452 2 0.199208 0.282542 0.617385
457 2 0.0325417 0.365875 0.535808
458 2 0.115875 0.449208 0.535808
459 2 0.115875 0.365875 0.617385
460 2 0.0325417 0.449208 0.617385
461 2 0.199208 0.365875 0.535808
464 2 0.199208 0.449208 0.617385
482 2 0.115875 0.282542 0.698021
493 2 0.0325417 0.365875 0.698021
494 2 0.115875 0.449208 0.698021
497 2 0.199208 0.365875 0.698021
450 2 0.282542 0.282542 0.535808
454 2 0.449208 0.282542 0.535808
456 2 0.365875 0.282542 0.617385
462 2 0.282542 0.449208 0.535808
463 2 0.282542 0.365875 0.617385
465 2 0.365875 0.365875 0.535808
466 2 0.449208 0.449208 0.535808
467 2 0.449208 0.365875 0.617385
468 2 0.365875 0.449208 0.617385
486 2 0.282542 0.282542 0.698021
490 2 0.449208 0.282542 0.698021
498 2 0.282542 0.449208 0.698021
501 2 0.365875 0.365875 0.698021
502 2 0.449208 0.449208 0.698021
471 2 0.115875 0.0325417 0.777729
472 2 0.0325417 0.115875 0.777729
476 2 0.199208 0.115875 0.777729
483 2 0.115875 0.199208 0.777729
505 2 0.0325417 0.0325417 0.858365
506 2 0.115875 0.115875 0.858365
507 2 0.115875 0.0325417 0.939942
508 2 0.0325417 0.115875 0.939942
509 2 0.199208 0.0325417 0.858365
512 2 0.199208 0.115875 0.939942
517 2 0.0325417 0.199208 0.858365
519 2 0.115875 0.199208 0.939942
521 2 0.199208 0.199208 0.858365
475 2 0.282542 0.0325417 0.777729
479 2 0.449208 0.0325417 0.777729
480 2 0.365875 0.115875 0.777729
487 2 0.282542 0.199208 0.777729
491 2 0.449208 0.199208 0.777729
510 2 0.282542 0.115875 0.858365
511 2 0.282542 0.0325417 0.939942
513 2 0.365875 0.0325417 0.858365
514 2 0.449208 0.115875 0.858365
515 2 0.449208 0.0325417 0.939942
516 2 0.365875 0.115875 0.939942
523 2 0.282542 0.199208 0.939942
525 2 0.365875 0.199208 0.858365
527 2 0.449208 0.199208 0.939942
484 2 0.0325417 0.282542 0.777729
488 2 0.199208 0.282542 0.777729
495 2 0.115875 0.365875 0.777729
496 2 0.0325417 0.449208 0.777729
500 2 0.199208 0.449208 0.777729
518 2 0.115875 0.282542 0.858365
520 2 0.0325417 0.282542 0.939942
524 2 0.199208 0.282542 0.939942
529 2 0.0325417 0.365875 0.858365
530 2 0.115875 0.449208 0.858365
531 2 0.115875 0.365875 0.939942
532 2 0.0325417 0.449208 0.939942
533 2 0.199208 0.365875 0.858365
536 2 0.199208 0.449208 0.939942
492 2 0.365875 0.282542 0.777729
499 2 0.282542 0.365875 0.777729
503 2 0.449208 0.365875 0.777729
504 2 0.365875 0.449208 0.777729
522 2 0.282542 0.282542 0.858365
526 2 0.449208 0.282542 0.858365
528 2 0.365875 0.282542 0.939942
534 2 0.282542 0.449208 0.858365
535 2 0.282542 0.365875 0.939942
537 2 0.365875 0.365875 0.858365
538 2 0.449208 0.449208 0.858365
539 2 0.449208 0.365875 0.939942
540 2 0.365875 0.449208 0.939942
109 1 0.0325417 0.532542 0.0258378
110 1 0.115875 0.615875 0.0258378
111 1 0.115875 0.532542 0.109989
112 1 0.0325417 0.615875 0.109989
113 1 0.199208 0.532542 0.0258378
116 1 0.199208 0.615875 0.109989
121 1 0.0325417 0.699208 0.0258378
123 1 0.115875 0.699208 0.109989
125 1 0.199208 0.699208 0.0258378
145 1 0.0325417 0.532542 0.195116
146 1 0.115875 0.615875 0.195116
149 1 0.199208 0.532542 0.195116
157 1 0.0325417 0.699208 0.195116
161 1 0.199208 0.699208 0.195116
114 1 0.282542 0.615875 0.0258378
115 1 0.282542 0.532542 0.109989
117 1 0.365875 0.532542 0.0258378
118 1 0.449208 0.615875 0.0258378
119 1 0.449208 0.532542 0.109989
120 1 0.365875 0.615875 0.109989
127 1 0.282542 0.699208 0.109989
129 1 0.365875 0.699208 0.0258378
131 1 0.449208 0.699208 0.109989
150 1 0.282542 0.615875 0.195116
153 1 0.365875 0.532542 0.195116
154 1 0.449208 0.615875 0.195116
165 1 0.365875 0.699208 0.195116
122 1 0.115875 0.782542 0.0258378
124 1 0.0325417 0.782542 0.109989
128 1 0.199208 0.782542 0.109989
133 1 0.0325417 0.865875 0.0258378
134 1 0.115875 0.949208 0.0258378
135 1 0.115875 0.865875 0.109989
136 1 0.0325417 0.949208 0.109989
137 1 0.199208 0.865875 0.0258378
140 1 0.199208 0.949208 0.109989
158 1 0.115875 0.782542 0.195116
169 1 0.0325417 0.865875 0.195116
170 1 0.115875 0.949208 0.195116
173 1 0.199208 0.865875 0.195116
126 1 0.282542 0.782542 0.0258378
130 1 0.449208 0.782542 0.0258378
132 1 0.365875 0.782542 0.109989
138 1 0.282542 0.949208 0.0258378
139 1 0.282542 0.865875 0.109989
141 1 0.365875 0.865875 0.0258378
142 1 0.449208 0.949208 0.0258378
143 1 0.449208 0.865875 0.109989
144 1 0.365875 0.949208 0.109989
162 1 0.282542 0.782542 0.195116
166 1 0.449208 0.782542 0.195116
174 1 0.282542 0.949208 0.195116
177 1 0.365875 0.865875 0.195116
178 1 0.449208 0.949208 0.195116
147 1 0.115875 0.532542 0.280634
148 1 0.0325417 0.615875 0.280634
152 1 0.199208 0.615875 0.280634
159 1 0.115875 0.699208 0.280634
181 1 0.0325417 0.532542 0.365761
182 1 0.115875 0.615875 0.365761
183 1 0.115875 0.532542 0.449912
184 1 0.0325417 0.615875 0.449912
185 1 0.199208 0.532542 0.365761
188 1 0.199208 0.615875 0.449912
193 1 0.0325417 0.699208 0.365761
195 1 0.115875 0.699208 0.449912
197 1 0.199208 0.699208 0.365761
151 1 0.282542 0.532542 0.280634
155 1 0.449208 0.532542 0.280634
156 1 0.365875 0.615875 0.280634
163 1 0.282542 0.699208 0.280634
167 1 0.449208 0.699208 0.280634
186 1 0.282542 0.615875 0.365761
187 1 0.282542 0.532542 0.449912
189 1 0.365875 0.532542 0.365761
190 1 0.449208 0.615875 0.365761
191 1 0.449208 0.532542 0.449912
192 1 0.365875 0.615875 0.449912
199 1 0.282542 0.699208 0.449912
201 1 0.365875 0.699208 0.365761
203 1 0.449208 0.699208 0.449912
160 1 0.0325417 0.782542 0.280634
164 1 0.199208 0.782542 0.280634
171 1 0.115875 0.865875 0.280634
172 1 0.0325417 0.949208 0.280634
176 1 0.199208 0.949208 0.280634
194 1 0.115875 0.782542 0.365761
196 1 0.0325417 0.782542 0.449912
200 1 0.199208 0.782542 0.449912
205 1 0.0325417 0.865875 0.365761
206 1 0.115875 0.949208 0.365761
207 1 0.115875 0.865875 0.449912
208 1 0.0325417 0.949208 0.449912
209 1 0.199208 0.865875 0.365761
212 1 0.199208 0.949208 0.449912
168 1 0.365875 0.782542 0.280634
175 1 0.282542 0.865875 0.280634
179 1 0.449208 0.865875 0.280634
180 1 0.365875 0.949208 0.280634
198 1 0.282542 0.782542 0.365761
202 1 0.449208 0.782542 0.365761
204 1 0.365875 0.782542 0.449912
210 1 0.282542 0.949208 0.365761
211 1 0.282542 0.865875 0.449912
213 1 0.365875 0.865875 0.365761
214 1 0.449208 0.949208 0.365761
215 1 0.449208 0.865875 0.449912
216 1 0.365875 0.949208 0.449912
541 2 0.0325417 0.532542 0.535808
542 2 0.115875 0.615875 0.535808
543 2 0.115875 0.532542 0.617385
544 2 0.0325417 0.615875 0.617385
545 2 0.199208 0.532542 0.535808
548 2 0.199208 0.615875 0.617385
553 2 0.0325417 0.699208 0.535808
555 2 0.115875 0.699208 0.617385
557 2 0.199208 0.699208 0.535808
577 2 0.0325417 0.532542 0.698021
578 2 0.115875 0.615875 0.698021
581 2 0.199208 0.532542 0.698021
589 2 0.0325417 0.699208 0.698021
593 2 0.199208 0.699208 0.698021
546 2 0.282542 0.615875 0.535808
547 2 0.282542 0.532542 0.617385
549 2 0.365875 0.532542 0.535808
550 2 0.449208 0.615875 0.535808
551 2 0.449208 0.532542 0.617385
552 2 0.365875 0.615875 0.617385
559 2 0.282542 0.699208 0.617385
561 2 0.365875 0.699208 0.535808
563 2 0.449208 0.699208 0.617385
582 2 0.282542 0.615875 0.698021
585 2 0.365875 0.532542 0.698021
586 2 0.449208 0.615875 0.698021
597 2 0.365875 0.699208 0.698021
554 2 0.115875 0.782542 0.535808
556 2 0.0325417 0.782542 0.617385
560 2 0.199208 0.782542 0.617385
565 2 0.0325417 0.865875 0.535808
566 2 0.115875 0.949208 0.535808
567 2 0.115875 0.865875 0.617385
568 2 0.0325417 0.949208 0.617385
569 2 0.199208 0.865875 0.535808
572 2 0.199208 0.949208 0.617385
590 2 0.115875 0.782542 0.698021
601 2 0.0325417 0.865875 0.698021
602 2 0.115875 0.949208 0.698021
605 2 0.199208 0.865875 0.698021
558 2 0.282542 0.782542 0.535808
562 2 0.449208 0.782542 0.535808
564 2 0.365875 0.782542 0.617385
570 2 0.282542 0.949208 0.535808
571 2 0.282542 0.865875 0.617385
573 2 0.365875 0.865875 0.535808
574 2 0.449208 0.949208 0.535808
575 2 0.449208 0.865875 0.617385
576 2 0.365875 0.949208 0.617385
594 2 0.282542 0.782542 0.698021
598 2 0.449208 0.782542 0.698021
606 2 0.282542 0.949208 0.698021
609 2 0.365875 0.865875 0.698021
610 2 0.449208 0.949208 0.698021
579 2 0.115875 0.532542 0.777729
580 2 0.0325417 0.615875 0.777729
584 2 0.199208 0.615875 0.777729
591 2 0.115875 0.699208 0.777729
613 2 0.0325417 0.532542 0.858365
614 2 0.115875 0.615875 0.858365
615 2 0.115875 0.532542 0.939942
616 2 0.0325417 0.615875 0.939942
617 2 0.199208 0.532542 0.858365
620 2 0.199208 0.615875 0.939942
625 2 0.0325417 0.699208 0.858365
627 2 0.115875 0.699208 0.939942
629 2 0.199208 0.699208 0.858365
583 2 0.282542 0.532542 0.777729
587 2 0.449208 0.532542 0.777729
588 2 0.365875 0.615875 0.777729
595 2 0.282542 0.699208 0.777729
599 2 0.449208 0.699208 0.777729
618 2 0.282542 0.615875 0.858365
619 2 0.282542 0.532542 0.939942
621 2 0.365875 0.532542 0.858365
622 2 0.449208 0.615875 0.858365
623 2 0.449208 0.532542 0.939942
624 2 0.365875 0.615875 0.939942
631 2 0.282542 0.699208 0.939942
633 2 0.365875 0.699208 0.858365
635 2 0.449208 0.699208 0.939942
592 2 0.0325417 0.782542 0.777729
596 2 0.199208 0.782542 0.777729
603 2 0.115875 0.865875 0.777729
604 2 0.0325417 0.949208 0.777729
608 2 0.199208 0.949208 0.777729
626 2 0.115875 0.782542 0.858365
628 2 0.0325417 0.782542 0.939942
632 2 0.199208 0.782542 0.939942
637 2 0.0325417 0.865875 0.858365
638 2 0.115875 0.949208 0.858365
639 2 0.115875 0.865875 0.939942
640 2 0.0325417 0.949208 0.939942
641 2 0.199208 0.865875 0.858365
644 2 0.199208 0.949208 0.939942
600 2 0.365875 0.782542 0.777729
607 2 0.282542 0.865875 0.777729
611 2 0.449208 0.865875 0.777729
612 2 0.365875 0.949208 0.777729
630 2 0.282542 0.782542 0.858365
634 2 0.449208 0.782542 0.858365
636 2 0.365875 0.782542 0.939942
642 2 0.282542 0.949208 0.858365
643 2 0.282542 0.865875 0.939942
645 2 0.365875 0.865875 0.858365
646 2 0.449208 0.949208 0.858365
647 2 0.449208 0.865875 0.939942
648 2 0.365875 0.949208 0.939942
217 1 0.532542 0.0325417 0.0258378
218 1 0.615875 0.115875 0.0258378
219 1 0.615875 0.0325417 0.109989
220 1 0.532542 0.115875 0.109989
221 1 0.699208 0.0325417 0.0258378
224 1 0.699208 0.115875 0.109989
229 1 0.532542 0.199208 0.0258378
231 1 0.615875 0.199208 0.109989
233 1 0.699208 0.199208 0.0258378
253 1 0.532542 0.0325417 0.195116
254 1 0.615875 0.115875 0.195116
257 1 0.699208 0.0325417 0.195116
265 1 0.532542 0.199208 0.195116
269 1 0.699208 0.199208 0.195116
222 1 0.782542 0.115875 0.0258378
223 1 0.782542 0.0325417 0.109989
225 1 0.865875 0.0325417 0.0258378
226 1 0.949208 0.115875 0.0258378
227 1 0.949208 0.0325417 0.109989
228 1 0.865875 0.115875 0.109989
235 1 0.782542 0.199208 0.109989
237 1 0.865875 0.199208 0.0258378
239 1 0.949208 0.199208 0.109989
258 1 0.782542 0.115875 0.195116
261 1 0.865875 0.0325417 0.195116
262 1 0.949208 0.115875 0.195116
273 1 0.865875 0.199208 0.195116
230 1 0.615875 0.282542 0.0258378
232 1 0.532542 0.282542 0.109989
236 1 0.699208 0.282542 0.109989
241 1 0.532542 0.365875 0.0258378
242 1 0.615875 0.449208 0.0258378
243 1 0.615875 0.365875 0.109989
244 1 0.532542 0.449208 0.109989
245 1 0.699208 0.365875 0.0258378
248 1 0.699208 0.449208 0.109989
266 1 0.615875 0.282542 0.195116
277 1 0.532542 0.365875 0.195116
278 1 0.615875 0.449208 0.195116
281 1 0.699208 0.365875 0.195116
234 1 0.782542 0.282542 0.0258378
238 1 0.949208 0.282542 0.0258378
240 1 0.865875 0.282542 0.109989
246 1 0.782542 0.449208 0.0258378
247 1 0.782542 0.365875 0.109989
249 1 0.865875 0.365875 0.0258378
250 1 0.949208 0.449208 0.0258378
251 1 0.949208 0.365875 0.109989
252 1 0.865875 0.449208 0.109989
270 1 0.782542 0.282542 0.195116
274 1 0.949208 0.282542 0.195116
282 1 0.782542 0.449208 0.195116
285 1 0.865875 0.365875 0.195116
286 1 0.949208 0.449208 0.195116
255 1 0.615875 0.0325417 0.280634
256 1 0.532542 0.115875 0.280634
260 1 0.699208 0.115875 0.280634
267 1 0.615875 0.199208 0.280634
289 1 0.532542 0.0325417 0.365761
290 1 0.615875 0.115875 0.365761
291 1 0.615875 0.0325417 0.449912
292 1 0.532542 0.115875 0.449912
293 1 0.699208 0.0325417 0.365761
296 1 0.699208 0.115875 0.449912
301 1 0.532542 0.199208 0.365761
303 1 0.615875 0.199208 0.449912
305 1 0.699208 0.199208 0.365761
259 1 0.782542 0.0325417 0.280634
263 1 0.949208 0.0325417 0.280634
264 1 0.865875 0.115875 0.280634
271 1 0.782542 0.199208 0.280634
275 1 0.949208 0.199208 0.280634
294 1 0.782542 0.115875 0.365761
295 1 0.782542 0.0325417 0.449912
297 1 0.865875 0.0325417 0.365761
298 1 0.949208 0.115875 0.365761
299 1 0.949208 0.0325417 0.449912
300 1 0.865875 0.115875 0.449912
307 1 0.782542 0.199208 0.449912
309 1 0.865875 0.199208 0.365761
311 1 0.949208 0.199208 0.449912
268 1 0.532542 0.282542 0.280634
272 1 0.699208 0.282542 0.280634
279 1 0.615875 0.365875 0.280634
280 1 0.532542 0.449208 0.280634
284 1 0.699208 0.449208 0.280634
302 1 0.615875 0.282542 0.365761
304 1 0.532542 0.282542 0.449912
308 1 0.699208 0.282542 0.449912
313 1 0.532542 0.365875 0.365761
314 1 0.615875 0.449208 0.365761
315 1 0.615875 0.365875 0.449912
316 1 0.532542 0.449208 0.449912
317 1 0.699208 0.365875 0.365761
320 1 0.699208 0.449208 0.449912
276 1 0.865875 0.282542 0.280634
283 1 0.782542 0.365875 0.280634
287 1 0.949208 0.365875 0.280634
288 1 0.865875 0.449208 0.280634
306 1 0.782542 0.282542 0.365761
310 1 0.949208 0.282542 0.365761
312 1 0.865875 0.282542 0.449912
318 1 0.782542 0.449208 0.365761
319 1 0.782542 0.365875 0.449912
321 1 0.865875 0.365875 0.365761
322 1 0.949208 0.449208 0.365761
323 1 0.949208 0.365875 0.449912
324 1 0.865875 0.449208 0.449912
649 2 0.532542 0.0325417 0.535808
650 2 0.615875 0.115875 0.535808
651 2 0.615875 0.0325417 0.617385
652 2 0.532542 0.115875 0.617385
653 2 0.699208 0.0325417 0.535808
656 2 0.699208 0.115875 0.617385
661 2 0.532542 0.199208 0.535808
663 2 0.615875 0.199208 0.617385
665 2 0.699208 0.199208 0.535808
685 2 0.532542 0.0325417 0.698021
686 2 0.615875 0.115875 0.698021
689 2 0.699208 0.0325417 0.698021
697 2 0.532542 0.199208 0.698021
701 2 0.699208 0.199208 0.698021
654 2 0.782542 0.115875 0.535808
655 2 0.782542 0.0325417 0.617385
657 2 0.865875 0.0325417 0.535808
658 2 0.949208 0.115875 0.535808
659 2 0.949208 0.0325417 0.617385
660 2 0.865875 0.115875 0.617385
667 2 0.782542 0.199208 0.617385
669 2 0.865875 0.199208 0.535808
671 2 0.949208 0.199208 0.617385
690 2 0.782542 0.115875 0.698021
693 2 0.865875 0.0325417 0.698021
694 2 0.949208 0.115875 0.698021
705 2 0.865875 0.199208 0.698021
662 2 0.615875 0.282542 0.535808
664 2 0.532542 0.282542 0.617385
668 2 0.699208 0.282542 0.617385
673 2 0.532542 0.365875 0.535808
674 2 0.615875 0.449208 0.535808
675 2 0.615875 0.365875 0.617385
676 2 0.532542 0.449208 0.617385
677 2 0.699208 0.365875 0.535808
680 2 0.699208 0.449208 0.617385
698 2 0.615875 0.282542 0.698021
709 2 0.532542 0.365875 0.698021
710 2 0.615875 0.449208 0.698021
713 2 0.699208 0.365875 0.698021
666 2 0.782542 0.282542 0.535808
670 2 0.949208 0.282542 0.535808
672 2 0.865875 0.282542 0.617385
678 2 0.782542 0.449208 0.535808
679 2 0.782542 0.365875 0.617385
681 2 0.865875 0.365875 0.535808
682 2 0.949208 0.449208 0.535808
683 2 0.949208 0.365875 0.617385
684 2 0.865875 0.449208 0.617385
702 2 0.782542 0.282542 0.698021
706 2 0.949208 0.282542 0.698021
714 2 0.782542 0.449208 0.698021
717 2 0.865875 0.365875 0.698021
718 2 0.949208 0.449208 0.698021
687 2 0.615875 0.0325417 0.777729
688 2 0.532542 0.115875 0.777729
692 2 0.699208 0.115875 0.777729
699 2 0.615875 0.199208 0.777729
721 2 0.532542 0.0325417 0.858365
722 2 0.615875 0.115875 0.858365
723 2 0.615875 0.0325417 0.939942
724 2 0.532542 0.115875 0.939942
725 2 0.699208 0.0325417 0.858365
728 2 0.699208 0.115875 0.939942
733 2 0.532542 0.199208 0.858365
735 2 0.615875 0.199208 0.939942
737 2 0.699208 0.199208 0.858365
691 2 0.782542 0.0325417 0.777729
695 2 0.949208 0.0325417 0.777729
696 2 0.865875 0.115875 0.777729
703 2 0.782542 0.199208 0.777729
707 2 0.949208 0.199208 0.777729
726 2 0.782542 0.115875 0.858365
727 2 0.782542 0.0325417 0.939942
729 2 0.865875 0.0325417 0.858365
730 2 0.949208 0.115875 0.858365
731 2 0.949208 0.0325417 0.939942
732 2 0.865875 0.115875 0.939942
739 2 0.782542 0.199208 0.939942
741 2 0.865875 0.199208 0.858365
743 2 0.949208 0.199208 0.939942
700 2 0.532542 0.282542 0.777729
704 2 0.699208 0.282542 0.777729
711 2 0.615875 0.365875 0.777729
712 2 0.532542 0.449208 0.777729
716 2 0.699208 0.449208 0.777729
734 2 0.615875 0.282542 0.858365
736 2 0.532542 0.282542 0.939942
740 2 0.699208 0.282542 0.939942
745 2 0.532542 0.365875 0.858365
746 2 0.615875 0.449208 0.858365
747 2 0.615875 0.365875 0.939942
748 2 0.532542 0.449208 0.939942
749 2 0.699208 0.365875 0.858365
752 2 0.699208 0.449208 0.939942
708 2 0.865875 0.282542 0.777729
715 2 0.782542 0.365875 0.777729
719 2 0.949208 0.365875 0.777729
720 2 0.865875 0.449208 0.777729
738 2 0.782542 0.282542 0.858365
742 2 0.949208 0.282542 0.858365
744 2 0.865875 0.282542 0.939942
750 2 0.782542 0.449208 0.858365
751 2 0.782542 0.365875 0.939942
753 2 0.865875 0.365875 0.858365
754 2 0.949208 0.449208 0.858365
755 2 0.949208 0.365875 0.939942
756 2 0.865875 0.449208 0.939942
325 1 0.532542 0.532542 0.0258378
326 1 0.615875 0.615875 0.0258378
327 1 0.615875 0.532542 0.109989
328 1 0.532542 0.615875 0.109989
329 1 0.699208 0.532542 0.0258378
332 1 0.699208 0.615875 0.109989
337 1 0.532542 0.699208 0.0258378
339 1 0.615875 0.699208 0.109989
341 1 0.699208 0.699208 0.0258378
361 1 0.532542 0.532542 0.195116
362 1 0.615875 0.615875 0.195116
365 1 0.699208 0.532542 0.195116
373 1 0.532542 0.699208 0.195116
377 1 0.699208 0.699208 0.195116
330 1 0.782542 0.615875 0.0258378
331 1 0.782542 0.532542 0.109989
333 1 0.865875 0.532542 0.0258378
334 1 0.949208 0.615875 0.0258378
335 1 0.949208 0.532542 0.109989
336 1 0.865875 0.615875 0.109989
343 1 0.782542 0.699208 0.109989
345 1 0.865875 0.699208 0.0258378
347 1 0.949208 0.699208 0.109989
366 1 0.782542 0.615875 0.195116
369 1 0.865875 0.532542 0.195116
370 1 0.949208 0.615875 0.195116
381 1 0.865875 0.699208 0.195116
338 1 0.615875 0.782542 0.0258378
340 1 0.532542 0.782542 0.109989
344 1 0.699208 0.782542 0.109989
349 1 0.532542 0.865875 0.0258378
350 1 0.615875 0.949208 0.0258378
351 1 0.615875 0.865875 0.109989
352 1 0.532542 0.949208 0.109989
353 1 0.699208 0.865875 0.0258378
356 1 0.699208 0.949208 0.109989
374 1 0.615875 0.782542 0.195116
385 1 0.532542 0.865875 0.195116
386 1 0.615875 0.949208 0.195116
389 1 0.699208 0.865875 0.195116
342 1 0.782542 0.782542 0.0258378
346 1 0.949208 0.782542 0.0258378
348 1 0.865875 0.782542 0.109989
354 1 0.782542 0.949208 0.0258378
355 1 0.782542 0.865875 0.109989
357 1 0.865875 0.865875 0.0258378
358 1 0.949208 0.949208 0.0258378
359 1 0.949208 0.865875 0.109989
360 1 0.865875 0.949208 0.109989
378 1 0.782542 0.782542 0.195116
382 1 0.949208 0.782542 0.195116
390 1 0.782542 0.949208 0.195116
393 1 0.865875 0.865875 0.195116
394 1 0.949208 0.949208 0.195116
363 1 0.615875 0.532542 0.280634
364 1 0.532542 0.615875 0.280634
368 1 0.699208 0.615875 0.280634
375 1 0.615875 0.699208 0.280634
397 1 0.532542 0.532542 0.365761
398 1 0.615875 0.615875 0.365761
399 1 0.615875 0.532542 0.449912
400 1 0.532542 0.615875 0.449912
401 1 0.699208 0.532542 0.365761
404 1 0.699208 0.615875 0.449912
409 1 0.532542 0.699208 0.365761
411 1 0.615875 0.699208 0.449912
413 1 0.699208 0.699208 0.365761
367 1 0.782542 0.532542 0.280634
371 1 0.949208 0.532542 0.280634
372 1 0.865875 0.615875 0.280634
379 1 0.782542 0.699208 0.280634
383 1 0.949208 0.699208 0.280634
402 1 0.782542 0.615875 0.365761
403 1 0.782542 0.532542 0.449912
405 1 0.865875 0.532542 0.365761
406 1 0.949208 0.615875 0.365761
407 1 0.949208 0.532542 0.449912
408 1 0.865875 0.615875 0.449912
415 1 0.782542 0.699208 0.449912
417 1 0.865875 0.699208 0.365761
419 1 0.949208 0.699208 0.449912
376 1 0.532542 0.782542 0.280634
380 1 0.699208 0.782542 0.280634
387 1 0.615875 0.865875 0.280634
388 1 0.532542 0.949208 0.280634
392 1 0.699208 0.949208 0.280634
410 1 0.615875 0.782542 0.365761
412 1 0.532542 0.782542 0.449912
416 1 0.699208 0.782542 0.449912
421 1 0.532542 0.865875 0.365761
422 1 0.615875 0.949208 0.365761
423 1 0.615875 0.865875 0.449912
424 1 0.532542 0.949208 0.449912
425 1 0.699208 0.865875 0.365761
428 1 0.699208 0.949208 0.449912
384 1 0.865875 0.782542 0.280634
391 1 0.782542 0.865875 0.280634
395 1 0.949208 0.865875 0.280634
396 1 0.865875 0.949208 0.280634
414 1 0.782542 0.782542 0.365761
418 1 0.949208 0.782542 0.365761
420 1 0.865875 0.782542 0.449912
426 1 0.782542 0.949208 0.365761
427 1 0.782542 0.865875 0.449912
429 1 0.865875 0.865875 0.365761
430 1 0.949208 0.949208 0.365761
431 1 0.949208 0.865875 0.449912
432 1 0.865875 0.949208 0.449912
757 2 0.532542 0.532542 0.535808
758 2 0.615875 0.615875 0.535808
759 2 0.615875 0.532542 0.617385
760 2 0.532542 0.615875 0.617385
761 2 0.699208 0.532542 0.535808
764 2 0.699208 0.615875 0.617385
769 2 0.532542 0.699208 0.535808
771 2 0.615875 0.699208 0.617385
773 2 0.699208 0.699208 0.535808
793 2 0.532542 0.532542 0.698021
794 2 0.615875 0.615875 0.698021
797 2 0.699208 0.532542 0.698021
805 2 0.532542 0.699208 0.698021
809 2 0.699208 0.699208 0.698021
762 2 0.782542 0.615875 0.535808
763 2 0.782542 0.532542 0.617385
765 2 0.865875 0.532542 0.535808
766 2 0.949208 0.615875 0.535808
767 2 0.949208 0.532542 0.617385
768 2 0.865875 0.615875 0.617385
775 2 0.782542 0.699208 0.617385
777 2 0.865875 0.699208 0.535808
779 2 0.949208 0.699208 0.617385
798 2 0.782542 0.615875 0.698021
801 2 0.865875 0.532542 0.698021
802 2 0.949208 0.615875 0.698021
813 2 0.865875 0.699208 0.698021
770 2 0.615875 0.782542 0.535808
772 2 0.532542 0.782542 0.617385
776 2 0.699208 0.782542 0.617385
781 2 0.532542 0.865875 0.535808
782 2 0.615875 0.949208 0.535808
783 2 0.615875 0.865875 0.617385
784 2 0.532542 0.949208 0.617385
785 2 0.699208 0.865875 0.535808
788 2 0.699208 0.949208 0.617385
806 2 0.615875 0.782542 0.698021
817 2 0.532542 0.865875 0.698021
818 2 0.615875 0.949208 0.698021
821 2 0.699208 0.865875 0.698021
774 2 0.782542 0.782542 0.535808
778 2 0.949208 0.782542 0.535808
780 2 0.865875 0.782542 0.617385
786 2 0.782542 0.949208 0.535808
787 2 0.782542 0.865875 0.617385
789 2 0.865875 0.865875 0.535808
790 2 0.949208 0.949208 0.535808
791 2 0.949208 0.865875 0.617385
792 2 0.865875 0.949208 0.617385
810 2 0.782542 0.782542 0.698021
814 2 0.949208 0.782542 0.698021
822 2 0.782542 0.949208 0.698021
825 2 0.865875 0.865875 0.698021
826 2 0.949208 0.949208 0.698021
795 2 0.615875 0.532542 0.777729
796 2 0.532542 0.615875 0.777729
800 2 0.699208 0.615875 0.777729
807 2 0.615875 0.699208 0.777729
829 2 0.532542 0.532542 0.858365
830 2 0.615875 0.615875 0.858365
831 2 0.615875 0.532542 0.939942
832 2 0.532542 0.615875 0.939942
833 2 0.699208 0.532542 0.858365
836 2 0.699208 0.615875 0.939942
841 2 0.532542 0.699208 0.858365
843 2 0.615875 0.699208 0.939942
845 2 0.699208 0.699208 0.858365
799 2 0.782542 0.532542 0.777729
803 2 0.949208 0.532542 0.777729
804 2 0.865875 0.615875 0.777729
811 2 0.782542 0.699208 0.777729
815 2 0.949208 0.699208 0.777729
834 2 0.782542 0.615875 0.858365
835 2 0.782542 0.532542 0.939942
837 2 0.865875 0.532542 0.858365
838 2 0.949208 0.615875 0.858365
839 2 0.949208 0.532542 0.939942
840 2 0.865875 0.615875 0.939942
847 2 0.782542 0.699208 0.939942
849 2 0.865875 0.699208 0.858365
851 2 0.949208 0.699208 0.939942
808 2 0.532542 0.782542 0.777729
812 2 0.699208 0.782542 0.777729
819 2 0.615875 0.865875 0.777729
820 2 0.532542 0.949208 0.777729
824 2 0.699208 0.949208 0.777729
842 2 0.615875 0.782542 0.858365
844 2 0.532542 0.782542 0.939942
848 2 0.699208 0.782542 0.939942
853 2 0.532542 0.865875 0.858365
854 2 0.615875 0.949208 0.858365
855 2 0.615875 0.865875 0.939942
856 2 0.532542 0.949208 0.939942
857 2 0.699208 0.865875 0.858365
860 2 0.699208 0.949208 0.939942
816 2 0.865875 0.782542 0.777729
823 2 0.782542 0.865875 0.777729
827 2 0.949208 0.865875 0.777729
828 2 0.865875 0.949208 0.777729
846 2 0.782542 0.782542 0.858365
850 2 0.949208 0.782542 0.858365
852 2 0.865875 0.782542 0.939942
858 2 0.782542 0.949208 0.858365
859 2 0.782542 0.865875 0.939942
861 2 0.865875 0.865875 0.858365
862 2 0.949208 0.949208 0.858365
863 2 0.949208 0.865875 0.939942
864 2 0.865875 0.949208 0.939942
ITEM: TIMESTEP
5000
ITEM: NUMBER OF ATOMS
864
ITEM: BOX BOUNDS pp pp pp
-7.5643181909356194e-01 2.0756431819093283e+01
-7.5643181909356194e-01 2.0756431819093283e+01
-7.5643181909356194e-01 2.0756431819093283e+01
ITEM: ATOMS id type xs ys zs
1 1 0.0325417 0.0325417 0.0291325
2 1 0.115875 0.115875 0.029134
3 1 0.115873 0.0325387 0.124086
4 1 0.0325387 0.115873 0.124086
5 1 0.199206 0.0325416 0.0291349
8 1 0.199207 0.115872 0.124087
13 1 0.0325416 0.199206 0.0291349
15 1 0.115872 0.199207 0.124087
17 1 0.199206 0.199206 0.0291375
37 1 0.0325409 0.0325409 0.203846
38 1 0.115874 0.115874 0.203844
41 1 0.199207 0.0325395 0.203846
49 1 0.0325395 0.199207 0.203846
53 1 0.199207 0.199207 0.203843
6 1 0.282538 0.115873 0.0291372
7 1 0.282542 0.032538 0.124089
9 1 0.365873 0.0325418 0.0291394
10 1 0.449208 0.115873 0.0291398
11 1 0.449211 0.0325405 0.124092
12 1 0.365876 0.115872 0.124091
19 1 0.282542 0.199206 0.124089
21 1 0.365873 0.199205 0.0291388
23 1 0.449211 0.199206 0.124091
42 1 0.282541 0.115873 0.203845
45 1 0.365876 0.0325401 0.20385
46 1 0.44921 0.115874 0.20385
57 1 0.365875 0.199207 0.203846