ITEM: TIMESTEP
0
ITEM: NUMBER OF ATOMS
864
ITEM: BOX BOUNDS pp pp pp
-1.5789176003603931e+00 2.1578917600361571e+01
-1.5789176003603931e+00 2.1578917600361571e+01
-1.5789176003603931e+00 2.1578917600361571e+01
ITEM: ATOMS id type xs ys zs
791 2 0.08566 0.0633954 0.241014
160 1 0.167518 0.171272 0.0878883
828 2 0.186175 0.0944369 0.159336
348 1 0.00925444 0.0543654 0.146754
426 1 0.16488 0.155913 0.224877
832 2 0.0202386 0.195826 0.104794
112 1 0.00989625 0.13851 0.209118
28 1 0.0844047 0.116582 0.070527
795 2 0.20181 0.0631809 0.0379342
74 1 0.104589 0.013481 0.0870579
383 1 0.132391 0.230031 0.171507
408 1 0.0114855 0.0706293 0.032196
742 2 0.376594 0.105171 0.212114
512 2 0.267786 0.18471 0.206069
712 2 0.279444 0.0776939 0.194674
495 2 0.392932 0.139107 0.0343111
159 1 0.357124 0.0829616 0.107844
380 1 0.366733 0.175376 0.114754
771 2 0.276704 0.116442 0.0451088
755 2 0.311308 0.206085 0.00875038
459 2 0.268319 0.0330427 0.0954603
431 1 0.436326 0.0327744 0.0374554
336 1 0.440128 0.234252 0.222369
490 2 0.266464 0.227689 0.10708
661 2 0.451934 0.201069 0.121891
312 1 0.459233 0.0908683 0.12152
142 1 0.365825 0.00683354 0.172283
254 1 0.11505 0.417353 0.0666607
290 1 0.0186611 0.271444 0.0400098
276 1 0.00932619 0.44111 0.0787657
588 2 0.0740802 0.421702 0.166472
419 1 0.109206 0.32964 0.0977941
777 2 0.204921 0.304933 0.134501
257 1 0.0607272 0.345025 0.216889
303 1 0.0296741 0.253882 0.192103
306 1 0.168781 0.448242 0.137949
218 1 0.179604 0.348871 0.222288
563 2 0.217926 0.290835 0.0287874
606 2 0.167329 0.455721 0.23065
400 1 0.216408 0.255372 0.225878
550 2 0.0125533 0.370034 0.00283997
144 1 0.193222 0.441251 0.011339
228 1 0.48481 0.481319 0.0177991
729 2 0.36734 0.456754 0.195378
739 2 0.296031 0.337642 0.20943
241 1 0.256638 0.38298 0.0575382
283 1 0.394645 0.45097 0.0489313
534 2 0.393303 0.275152 0.102303
425 1 0.420152 0.348135 0.180606
133 1 0.327323 0.335986 0.123183
428 1 0.432392 0.362164 0.0170795
507 2 0.353904 0.261483 0.185575
863 2 0.269435 0.441165 0.190551
50 1 0.459116 0.426145 0.131373
591 2 0.407153 0.267875 0.000898566
853 2 0.1596 0.159692 0.408558
503 2 0.24033 0.0613505 0.485283
615 2 0.0486214 0.213978 0.357126
302 1 0.244577 0.0514379 0.371989
187 1 0.0628958 0.135433 0.317072
168 1 0.0635182 0.170047 0.453213
414 1 0.21129 0.0617731 0.260739
38 1 0.112012 0.238864 0.272056
424 1 0.0702937 0.0676714 0.413979
443 2 0.208405 0.194486 0.317134
478 2 0.0298249 0.0419325 0.314757
500 2 0.125873 0.0540815 0.342093
178 1 0.181385 0.24754 0.489136
37 1 0.438231 0.058449 0.398382
156 1 0.479105 0.141211 0.26649
196 1 0.341729 0.0147567 0.419679
328 1 0.372896 0.18876 0.280463
352 1 0.272154 0.132747 0.296512
69 1 0.334964 0.227632 0.388326
191 1 0.259932 0.156492 0.425541
70 1 0.344949 0.0849198 0.338137
458 2 0.415885 0.0209903 0.291124
516 2 0.350634 0.114274 0.436012
519 2 0.437658 0.172484 0.346457
150 1 0.431075 0.186134 0.467759
821 2 0.465522 0.102159 0.495525
481 2 0.441734 0.00970447 0.493698
245 1 0.315333 0.0093846 0.258349
339 1 0.0673814 0.458276 0.258963
845 2 0.0422323 0.303979 0.312827
526 2 0.116185 0.457855 0.495575
6 1 0.11304 0.404366 0.34811
205 1 0.189744 0.352853 0.457687
434 2 0.121954 0.299648 0.386003
794 2 0.201168 0.344366 0.318282
373 1 0.184743 0.456701 0.404227
645 2 0.0836533 0.378751 0.437868
788 2 0.217544 0.263209 0.382208
390 1 0.0120453 0.452604 0.452132
817 2 0.239656 0.485574 0.32153
356 1 0.000411244 0.385618 0.304969
764 2 0.104101 0.494185 0.364424
842 2 0.424637 0.315658 0.428059
486 2 0.308564 0.439913 0.301865
140 1 0.300202 0.463577 0.498075
778 2 0.468992 0.332659 0.340014
733 2 0.295405 0.25913 0.499028
456 2 0.492962 0.251897 0.386451
120 1 0.294709 0.259932 0.303172
706 2 0.450291 0.488132 0.48796
240 1 0.38617 0.320028 0.287173
626 2 0.470907 0.393495 0.423016
220 1 0.277937 0.412907 0.396247
169 1 0.381565 0.427662 0.453589
471 2 0.415958 0.429374 0.276426
647 2 0.290955 0.355269 0.479747
268 1 0.326431 0.326097 0.391332
475 2 0.440186 0.481997 0.384954
237 1 0.0719979 0.0498006 0.649927
517 2 0.136585 0.03687 0.521718
261 1 0.17481 0.135341 0.609715
461 2 0.0636577 0.153503 0.631666
2 1 0.228507 0.199449 0.56628
95 1 0.0676171 0.249346 0.656842
627 2 0.0669675 0.110917 0.534606
510 2 0.203239 0.217057 0.663694
864 2 0.17214 0.145249 0.504071
671 2 0.0225517 0.059402 0.737411
575 2 0.131192 0.107191 0.733677
77 1 0.174139 0.0509951 0.649753
52 1 0.034463 0.209013 0.556279
509 2 0.119503 0.0031039 0.711148
757 2 0.271104 0.090399 0.587775
680 2 0.37117 0.0674937 0.55113
761 2 0.382729 0.114191 0.6215
598 2 0.359055 0.0129048 0.644398
650 2 0.348184 0.204204 0.597225
480 2 0.475582 0.0510568 0.704089
508 2 0.264726 0.0999044 0.686759
239 1 0.351712 0.125485 0.733185
786 2 0.291923 0.240195 0.709053
101 1 0.416547 0.202926 0.732518
439 2 0.446861 0.187494 0.63451
797 2 0.325736 0.0196859 0.743359
633 2 0.30925 0.153218 0.51779
92 1 0.473756 0.0902697 0.59138
674 2 0.131206 0.376813 0.565225
182 1 0.132309 0.250923 0.567739
284 1 0.0943008 0.306397 0.505563
585 2 0.0150322 0.307672 0.557732
663 2 0.233419 0.475755 0.728105
81 1 0.15108 0.298241 0.647063
704 2 0.0477471 0.35018 0.658687
255 1 0.176321 0.424998 0.664549
331 1 0.0825913 0.475273 0.686129
824 2 0.0510553 0.418206 0.563968
179 1 0.210176 0.328509 0.573583
622 2 0.234662 0.309269 0.703032
572 2 0.119566 0.487486 0.599219
321 1 0.227105 0.429801 0.56412
65 1 0.393604 0.28008 0.522155
619 2 0.487607 0.312396 0.501949
781 2 0.429585 0.297313 0.606315
856 2 0.493382 0.308225 0.722147
649 2 0.341349 0.468531 0.590518
209 1 0.270723 0.375507 0.633632
670 2 0.334593 0.302827 0.604104
410 1 0.409837 0.379579 0.567345
318 1 0.461565 0.40125 0.67739
711 2 0.331258 0.456295 0.688522
839 2 0.457326 0.49175 0.602374
768 2 0.432459 0.491854 0.743596
790 2 0.374054 0.298937 0.712364
417 1 0.0173114 0.107935 0.942557
773 2 0.0734074 0.204943 0.991037
683 2 0.107689 0.000651417 0.920851
514 2 0.113353 0.210161 0.771325
754 2 0.20449 0.0225919 0.875189
732 2 0.152098 0.119153 0.942663
548 2 0.029416 0.00226125 0.838104
213 1 0.0717176 0.11467 0.835875
165 1 0.194052 0.188265 0.992736
409 1 0.159419 0.17861 0.861759
679 2 0.244494 0.148779 0.893569
333 1 0.216388 0.0302411 0.767001
570 2 0.29458 0.024761 0.958049
654 2 0.347268 0.106012 0.934194
620 2 0.29823 0.0866563 0.828627
323 1 0.392174 0.062407 0.806256
642 2 0.408777 0.0366872 0.935771
235 1 0.309352 0.192783 0.786092
610 2 0.487644 0.126198 0.776087
134 1 0.402273 0.167163 0.840456
107 1 0.46612 0.0989574 0.878266
745 2 0.438757 0.209525 0.929878
665 2 0.105649 0.493349 0.780229
375 1 0.0395083 0.413629 0.767602
337 1 0.248214 0.379921 0.768183
449 2 0.216085 0.253718 0.778453
721 2 0.207094 0.270434 0.874329
612 2 0.0637649 0.261835 0.844863
106 1 0.11817 0.362086 0.983527
660 2 0.127026 0.301275 0.776405
35 1 0.0685014 0.360914 0.864694
844 2 0.156494 0.418886 0.758701
860 2 0.102532 0.452487 0.923941
53 1 0.177877 0.355337 0.842413
741 2 0.0188825 0.46644 0.983684
707 2 0.210407 0.476101 0.887316
658 2 0.111796 0.277957 0.92775
807 2 0.210753 0.342598 0.944947
838 2 0.313996 0.4411 0.998043
564 2 0.319458 0.496888 0.878502
487 2 0.416855 0.449625 0.951459
236 1 0.355902 0.35834 0.899794
631 2 0.328305 0.452162 0.793108
614 2 0.469003 0.286764 0.867752
501 2 0.337558 0.254958 0.904023
492 2 0.263959 0.400697 0.884245
309 1 0.300903 0.329898 0.980134
248 1 0.286574 0.307621 0.820554
559 2 0.393108 0.2764 0.814559
803 2 0.46876 0.399275 0.766266
847 2 0.370959 0.367367 0.765129
55 1 0.47625 0.369517 0.914812
539 2 0.411449 0.426275 0.845297
1 1 0.197536 0.681369 0.129178
127 1 0.172381 0.540113 0.171876
387 1 0.212568 0.645653 0.245114
528 2 0.0906222 0.655967 0.163293
762 2 0.0576306 0.669483 0.0716796
504 2 0.0581852 0.555966 0.142415
346 1 0.150886 0.602278 0.0911373
498 2 0.212306 0.531014 0.0565473
137 1 0.236164 0.599952 0.160904
457 2 0.170279 0.730244 0.0428427
556 2 0.0974644 0.74824 0.150705
389 1 0.103823 0.524421 0.0318129
226 1 0.314335 0.603969 0.0816283
455 2 0.332321 0.668286 0.246654
535 2 0.42899 0.577392 0.0411439
325 1 0.411746 0.518508 0.120472
12 1 0.354704 0.570634 0.198213
737 2 0.460565 0.653104 0.126269
687 2 0.265501 0.747621 0.167145
700 2 0.386106 0.726746 0.0533179
523 2 0.411911 0.710257 0.196006
637 2 0.309993 0.506383 0.126321
435 2 0.267303 0.711825 0.0566049
59 1 0.346715 0.678166 0.126087
358 1 0.269767 0.52789 0.231217
538 2 0.0963247 0.830529 0.0602359
611 2 0.173643 0.801993 0.131187
204 1 0.134095 0.912408 0.0496479
738 2 0.00550024 0.764448 0.0586507
833 2 0.212574 0.824233 0.0412941
653 2 0.182579 0.9074 0.137635
357 1 0.0679121 0.857228 0.153496
64 1 0.0313074 0.935341 0.066205
648 2 0.22138 0.957751 0.0588202
841 2 0.123825 0.775733 0.246857
87 1 0.0406588 0.780002 0.221411
188 1 0.221621 0.84139 0.246421
91 1 0.0507984 0.975009 0.199803
466 2 0.15362 0.991621 0.184198
343 1 0.454918 0.946954 0.105111
800 2 0.348425 0.965577 0.0813052
672 2 0.38858 0.859352 0.0715921
848 2 0.341466 0.775754 0.132259
746 2 0.347868 0.780014 0.222807
82 1 0.269562 0.840462 0.140377
657 2 0.309673 0.877607 0.218919
161 1 0.49279 0.85592 0.148831
369 1 0.498138 0.950366 0.219812
544 2 0.26371 0.949324 0.167891
511 2 0.467345 0.777769 0.105953
662 2 0.456725 0.817954 0.228448
529 2 0.38941 0.925096 0.241398
552 2 0.470643 0.804058 0.0152141
73 1 0.162898 0.55391 0.276339
825 2 0.225942 0.746466 0.260753
837 2 0.0255739 0.660361 0.411564
819 2 0.0329502 0.594796 0.272752
289 1 0.0529268 0.553655 0.441103
668 2 0.112949 0.66609 0.26161
313 1 0.0200647 0.733058 0.302711
103 1 0.206437 0.630453 0.354462
776 2 0.0920898 0.595667 0.351384
815 2 0.123699 0.709061 0.354624
718 2 0.161408 0.557721 0.419401
438 2 0.177326 0.718747 0.458286
126 1 0.103 0.640582 0.491615
403 1 0.495241 0.524584 0.260948
557 2 0.396203 0.746714 0.499173
143 1 0.486476 0.647891 0.364499
157 1 0.361599 0.636871 0.474409
247 1 0.338978 0.504696 0.388662
599 2 0.256545 0.543603 0.417748
605 2 0.310656 0.743605 0.32791
40 1 0.309195 0.661208 0.395557
624 2 0.298826 0.598115 0.317712
638 2 0.391535 0.679598 0.310669
823 2 0.409738 0.58103 0.361861
189 1 0.261837 0.611394 0.496524
701 2 0.400793 0.706833 0.411026
44 1 0.372702 0.521735 0.291143
744 2 0.434445 0.61388 0.250719
716 2 0.276282 0.721211 0.465167
601 2 0.482494 0.596846 0.449572
625 2 0.484909 0.7234 0.295611
155 1 0.0430243 0.861308 0.307464
521 2 0.204961 0.936068 0.305587
861 2 0.142616 0.983174 0.44516
590 2 0.0461296 0.836691 0.478534
366 1 0.0301934 0.926237 0.467648
15 1 0.234193 0.765745 0.387559
442 2 0.216199 0.80691 0.48375
555 2 0.08595 0.820589 0.389095
597 2 0.119041 0.910132 0.250066
767 2 0.165437 0.878394 0.429712
398 1 0.0893971 0.945302 0.347069
567 2 0.232367 0.954246 0.425676
482 2 0.15026 0.84925 0.327132
747 2 0.237999 0.851387 0.348275
57 1 0.0952958 0.758416 0.475897
429 1 0.453552 0.862029 0.320889
63 1 0.475234 0.955096 0.341859
705 2 0.416276 0.785246 0.35893
713 2 0.300293 0.885385 0.417173
806 2 0.337818 0.800332 0.422404
613 2 0.363874 0.897551 0.495387
301 1 0.295937 0.96154 0.327431
524 2 0.410079 0.929696 0.404491
641 2 0.334861 0.853304 0.324778
264 1 0.4479 0.820192 0.440297
210 1 0.00301765 0.662168 0.557414
703 2 0.0413961 0.702374 0.673674
690 2 0.208275 0.578041 0.733929
785 2 0.100123 0.572901 0.679512
489 2 0.181647 0.638018 0.650471
307 1 0.221254 0.707183 0.564216
167 1 0.041685 0.56116 0.580161
831 2 0.0985356 0.714275 0.587338
246 1 0.152441 0.741921 0.663207
629 2 0.180965 0.578485 0.538804
484 2 0.184445 0.537187 0.650206
402 1 0.459645 0.66952 0.520154
242 1 0.361499 0.65454 0.683096
299 1 0.318144 0.662749 0.579968
862 2 0.427294 0.62443 0.606914
175 1 0.45645 0.651067 0.73808
341 1 0.466231 0.707963 0.655235
234 1 0.279722 0.555343 0.662521
367 1 0.328806 0.572345 0.546994
345 1 0.358111 0.563791 0.740398
68 1 0.106237 0.943816 0.619587
549 2 0.213535 0.90913 0.613193
132 1 0.118285 0.886923 0.54469
392 1 0.217886 0.916664 0.718606
849 2 0.103624 0.771967 0.738604
801 2 0.202528 0.823794 0.671944
221 1 0.219447 0.752131 0.749668
603 2 0.10886 0.858294 0.664711
736 2 0.199713 0.979536 0.551046
223 1 0.165314 0.801998 0.572681
138 1 0.0171551 0.937655 0.677428
47 1 0.0124515 0.893806 0.567744
584 2 0.0367605 0.999246 0.563815
436 2 0.262343 0.993351 0.649964
634 2 0.311006 0.753761 0.706322
372 1 0.404745 0.756796 0.722239
446 2 0.254686 0.811363 0.594846
89 1 0.336552 0.757772 0.602798
829 2 0.408177 0.929136 0.651526
709 2 0.320931 0.926421 0.60454
769 2 0.311023 0.80907 0.510301
854 2 0.305203 0.870049 0.684408
80 1 0.406627 0.955013 0.739612
217 1 0.419668 0.841732 0.687921
288 1 0.475363 0.892653 0.51507
735 2 0.313302 0.989379 0.503125
287 1 0.44896 0.994201 0.590826
684 2 0.263755 0.896318 0.509211
719 2 0.464091 0.809742 0.590101
651 2 0.243529 0.536317 0.823076
84 1 0.101286 0.60948 0.985712
27 1 0.111246 0.721501 0.836263
708 2 0.0532737 0.543195 0.921802
699 2 0.153954 0.666464 0.752724
810 2 0.0396306 0.592032 0.783803
722 2 0.248336 0.691531 0.949455
11 1 0.181717 0.631386 0.894233
464 2 0.0251257 0.678102 0.783143
515 2 0.0406708 0.651255 0.881032
546 2 0.109712 0.565488 0.845704
750 2 0.119842 0.693411 0.934678
452 2 0.165057 0.544899 0.939066
462 2 0.187744 0.634642 0.99193
72 1 0.397309 0.644982 0.90746
22 1 0.418377 0.559174 0.861217
110 1 0.283094 0.621313 0.777481
608 2 0.25814 0.691291 0.853299
332 1 0.437438 0.717905 0.84032
779 2 0.368987 0.641876 0.81622
678 2 0.279922 0.582167 0.924184
826 2 0.371882 0.545821 0.95909
180 1 0.466465 0.658386 0.977356
149 1 0.34746 0.652156 0.997748
114 1 0.372902 0.739735 0.93373
479 2 0.480551 0.549378 0.948115
774 2 0.482845 0.741467 0.92933
675 2 0.488003 0.538416 0.794936
686 2 0.488203 0.640431 0.867424
499 2 0.104015 0.817145 0.829252
748 2 0.218943 0.900425 0.842158
388 1 0.131718 0.896125 0.771848
782 2 0.0652432 0.763567 0.918773
376 1 0.192577 0.94093 0.953967
41 1 0.187496 0.796693 0.886489
34 1 0.130402 0.993177 0.807774
804 2 0.0778727 0.889392 0.956756
231 1 0.0275264 0.906551 0.794985
233 1 0.136589 0.811377 0.971505
151 1 0.111685 0.916436 0.864848
125 1 0.00427693 0.828621 0.978857
277 1 0.484162 0.797412 0.783438
545 2 0.298388 0.789806 0.993012
384 1 0.395511 0.848417 0.943325
49 1 0.499795 0.864801 0.941334
258 1 0.321232 0.989467 0.840622
421 1 0.361155 0.849984 0.807306
835 2 0.453907 0.819059 0.86582
537 2 0.474232 0.900289 0.799548
29 1 0.327559 0.922893 0.934174
469 2 0.303461 0.914026 0.765713
693 2 0.426174 0.938434 0.883068
117 1 0.335838 0.753331 0.806344
399 1 0.441566 0.929654 0.995988
717 2 0.3069 0.80145 0.887158
792 2 0.269854 0.896856 0.997549
136 1 0.650516 0.0712056 0.172747
88 1 0.698499 0.175621 0.192609
152 1 0.68889 0.205542 0.0887722
166 1 0.502044 0.173452 0.0035122
851 2 0.551445 0.0715087 0.042688
334 1 0.522454 0.0323923 0.142361
158 1 0.61794 0.158308 0.0241404
688 2 0.613911 0.249834 0.135686
71 1 0.551795 0.134026 0.166778
355 1 0.726589 0.0801627 0.0611624
292 1 0.657637 0.0241962 0.0964034
427 1 0.62603 0.249296 0.24399
518 2 0.722733 0.203369 0.00194324
170 1 0.966063 0.0121015 0.245167
600 2 0.801179 0.168759 0.201756
574 2 0.944599 0.121221 0.0999082
208 1 0.934254 0.212064 0.190745
422 1 0.8363 0.100415 0.0523849
7 1 0.772353 0.0710753 0.14928
423 1 0.798969 0.175443 0.105645
193 1 0.892232 0.123038 0.199756
198 1 0.91395 0.233004 0.0783399
17 1 0.754732 0.0796832 0.244913
222 1 0.93032 0.151962 0.000516721
311 1 0.845512 0.235321 0.00379721
578 2 0.694421 0.317723 0.139288
593 2 0.70042 0.435688 0.0152681
621 2 0.525395 0.431155 0.221968
48 1 0.670515 0.410848 0.142864
430 1 0.682524 0.423333 0.232032
238 1 0.505638 0.333315 0.234595
558 2 0.701065 0.306048 0.248459
5 1 0.653308 0.499269 0.0864236
809 2 0.653606 0.28277 0.0415638
468 2 0.509051 0.28548 0.0526436
470 2 0.560818 0.362459 0.158565
416 1 0.512407 0.257423 0.165624
814 2 0.527767 0.386337 0.0671068
447 2 0.594677 0.435638 0.0266396
843 2 0.788968 0.287299 0.201127
310 1 0.795211 0.382156 0.186849
266 1 0.975474 0.322838 0.149553
181 1 0.876592 0.321941 0.165418
587 2 0.844415 0.490361 0.18337
146 1 0.873076 0.404651 0.235832
395 1 0.795365 0.302662 0.0758332
796 2 0.772115 0.496264 0.0936162
56 1 0.853682 0.409492 0.112318
269 1 0.972063 0.453077 0.208608
681 2 0.921024 0.374679 0.036157
850 2 0.927877 0.490151 0.121958
789 2 0.876964 0.491641 0.0515163
274 1 0.73811 0.205207 0.292019
696 2 0.531561 0.148293 0.363114
465 2 0.714255 0.00721225 0.463281
640 2 0.580272 0.219997 0.47433
676 2 0.598535 0.0743288 0.354496
135 1 0.514254 0.245096 0.286594
119 1 0.679284 0.149291 0.372033
727 2 0.66671 0.11849 0.272438
415 1 0.583921 0.151478 0.279066
164 1 0.747706 0.0868855 0.349179
102 1 0.52478 0.0497867 0.25154
561 2 0.67147 0.145004 0.493022
381 1 0.600443 0.207059 0.377887
485 2 0.629525 0.0656486 0.450342
497 2 0.54017 0.0981655 0.44999
659 2 0.690163 0.239478 0.445181
382 1 0.66514 0.00488374 0.29774
141 1 0.954333 0.15375 0.459771
379 1 0.853227 0.234366 0.284772
202 1 0.862557 0.101299 0.459475
54 1 0.81782 0.141782 0.303238
154 1 0.787256 0.214835 0.371966
749 2 0.98682 0.120161 0.370244
404 1 0.817327 0.0351024 0.410211
740 2 0.769148 0.147168 0.431642
20 1 0.809561 0.227966 0.479728
353 1 0.894781 0.183621 0.369691
297 1 0.973082 0.198044 0.288383
433 2 0.907542 0.099575 0.290985
553 2 0.989313 0.0683292 0.479055
566 2 0.671832 0.352612 0.481026
586 2 0.580587 0.471852 0.410955
474 2 0.69673 0.455047 0.449027
630 2 0.744851 0.329634 0.431715
859 2 0.525798 0.409073 0.327723
411 1 0.651641 0.45 0.348161
780 2 0.565298 0.309848 0.354417
347 1 0.58829 0.362731 0.267204
491 2 0.670836 0.266483 0.340353
163 1 0.55928 0.367695 0.433288
124 1 0.641775 0.351563 0.378077
33 1 0.885037 0.40692 0.448958
840 2 0.793797 0.475387 0.281476
541 2 0.861 0.327863 0.366545
594 2 0.998824 0.257292 0.452514
583 2 0.784788 0.318141 0.294745
752 2 0.780087 0.42223 0.490648
36 1 0.939662 0.318088 0.259924
830 2 0.949062 0.284785 0.347193
445 2 0.865538 0.424374 0.343635
296 1 0.989952 0.351951 0.409188
520 2 0.898687 0.282792 0.452288
75 1 0.771518 0.400486 0.359828
592 2 0.996626 0.488044 0.33563
272 1 0.837955 0.488662 0.437489
636 2 0.728922 0.0622588 0.638329
19 1 0.571613 0.122812 0.545361
565 2 0.634048 0.0880691 0.632023
24 1 0.55583 0.0247458 0.65669
577 2 0.707034 0.13468 0.685333
385 1 0.560633 0.129652 0.707054
108 1 0.617622 0.209576 0.656814
765 2 0.693098 0.151325 0.592773
805 2 0.534699 0.0353593 0.534821
39 1 0.693583 0.0618864 0.540976
522 2 0.641284 0.0510065 0.715667
190 1 0.54918 0.22171 0.714283
596 2 0.507796 0.20678 0.538085
720 2 0.618103 0.00477814 0.579874
60 1 0.907259 0.0528677 0.737763
505 2 0.846655 0.0559831 0.623088
646 2 0.758984 0.212678 0.634863
756 2 0.885874 0.164184 0.637155
244 1 0.814376 0.153816 0.710681
270 1 0.902357 0.0841559 0.542062
582 2 0.983864 0.150569 0.708794
211 1 0.812193 0.158199 0.558203
184 1 0.965668 0.239955 0.677475
362 1 0.919717 0.203754 0.553927
286 1 0.793845 0.0420555 0.50785
279 1 0.768405 0.046915 0.738129
194 1 0.969068 0.0915256 0.616302
8 1 0.713947 0.282487 0.727794
371 1 0.677752 0.311823 0.640837
413 1 0.669406 0.252118 0.553368
66 1 0.572908 0.278321 0.582298
326 1 0.546834 0.427463 0.509037
330 1 0.561804 0.427869 0.732148
836 2 0.662267 0.422812 0.642682
763 2 0.553989 0.465643 0.620593
96 1 0.576526 0.343642 0.661414
291 1 0.748696 0.374583 0.593088
743 2 0.737982 0.429677 0.695068
632 2 0.619352 0.361909 0.570098
580 2 0.641669 0.473658 0.552086
783 2 0.523099 0.359242 0.575653
25 1 0.502915 0.488781 0.691803
21 1 0.659925 0.499495 0.703666
177 1 0.844129 0.477689 0.731178
9 1 0.878725 0.272679 0.626064
281 1 0.861963 0.415741 0.538083
628 2 0.960516 0.395859 0.567529
324 1 0.802813 0.343582 0.680886
770 2 0.847314 0.255041 0.716523
420 1 0.963994 0.428982 0.684365
730 2 0.786663 0.472658 0.589644
858 2 0.937985 0.32618 0.664401
405 1 0.777198 0.293476 0.549563
129 1 0.873417 0.420789 0.644753
477 2 0.908148 0.324323 0.533154
216 1 0.616904 0.0302301 0.988292
820 2 0.558852 0.223882 0.929257
787 2 0.518096 0.0173966 0.836857
229 1 0.591984 0.0917493 0.805067
775 2 0.654401 0.190646 0.76157
174 1 0.569361 0.132117 0.93601
365 1 0.637771 0.149541 0.868264
760 2 0.628478 0.0543865 0.895258
595 2 0.691255 0.113327 0.943508
26 1 0.508801 0.0622436 0.96307
488 2 0.531 0.185604 0.851232
506 2 0.746039 0.00252621 0.825706
695 2 0.743669 0.0135855 0.943644
200 1 0.760956 0.221184 0.782914
677 2 0.990657 0.191972 0.817266
300 1 0.84858 0.0654828 0.807744
263 1 0.92939 0.021381 0.905458
714 2 0.965037 0.0959875 0.823667
656 2 0.750064 0.112427 0.832057
734 2 0.848053 0.0817058 0.912548
18 1 0.888286 0.179993 0.790424
724 2 0.757998 0.211251 0.895754
451 2 0.938606 0.11562 0.905425
116 1 0.790956 0.137135 0.978289
305 1 0.856757 0.186705 0.895477
76 1 0.970759 0.213308 0.922077
265 1 0.913135 0.0436603 0.996744
525 2 0.661725 0.252267 0.946849
453 2 0.59974 0.304291 0.754543
192 1 0.746821 0.312998 0.975569
122 1 0.507875 0.455434 0.890147
536 2 0.585722 0.305321 0.862095
726 2 0.680596 0.26578 0.84981
533 2 0.613229 0.491557 0.891371
604 2 0.712592 0.361458 0.813777
153 1 0.676743 0.378946 0.929815
201 1 0.560803 0.404399 0.842354
243 1 0.6472 0.444894 0.79741
502 2 0.570243 0.316718 0.97558
43 1 0.833589 0.320537 0.963501
278 1 0.917634 0.445011 0.95858
344 1 0.969964 0.351044 0.881282
527 2 0.788517 0.383422 0.888329
394 1 0.897779 0.348509 0.762129
121 1 0.936595 0.292207 0.980745
855 2 0.893049 0.491609 0.840426
338 1 0.882062 0.379173 0.86572
186 1 0.954284 0.416244 0.799169
249 1 0.802769 0.483048 0.8045
715 2 0.994447 0.464752 0.872181
812 2 0.916666 0.256829 0.858486
349 1 0.977142 0.30018 0.786048
31 1 0.841927 0.286648 0.811107
569 2 0.802542 0.390984 0.766763
275 1 0.822376 0.433507 0.991043
319 1 0.685776 0.633558 0.203003
609 2 0.621305 0.681497 0.123742
256 1 0.540843 0.507364 0.143267
397 1 0.542552 0.609196 0.203532
772 2 0.71045 0.600908 0.0751983
86 1 0.738601 0.742725 0.0919212
83 1 0.548926 0.745691 0.073017
98 1 0.564715 0.541674 0.0467074
317 1 0.73092 0.519418 0.176253
573 2 0.6461 0.655945 0.0326768
14 1 0.528736 0.647952 0.050943
551 2 0.638228 0.567331 0.151449
195 1 0.610545 0.502978 0.220246
374 1 0.659029 0.548797 0.00223248
579 2 0.801642 0.657138 0.0688481
260 1 0.884117 0.586855 0.0828688
93 1 0.802522 0.575365 0.142497
432 1 0.982517 0.739715 0.152816
79 1 0.893526 0.652782 0.20522
731 2 0.78611 0.685728 0.184108
407 1 0.948389 0.560747 0.180617
378 1 0.901699 0.734425 0.104629
467 2 0.956031 0.660576 0.0264826
617 2 0.975582 0.554817 0.042124
460 2 0.996348 0.665824 0.223839
148 1 0.58396 0.841863 0.157345
203 1 0.627379 0.758805 0.199197
145 1 0.660145 0.892532 0.131726
664 2 0.724771 0.937091 0.0406584
607 2 0.632104 0.946282 0.0536724
219 1 0.563295 0.947747 0.103975
412 1 0.607452 0.975767 0.19111
554 2 0.546963 0.94912 0.00253906
494 2 0.647063 0.769185 0.0904654
128 1 0.713409 0.799026 0.190903
316 1 0.515325 0.750617 0.181213
3 1 0.591735 0.842091 0.0446675
214 1 0.704668 0.831682 0.0448709
818 2 0.705178 0.982662 0.170202
173 1 0.920126 0.80535 0.0278158
364 1 0.987767 0.855098 0.105699
483 2 0.972655 0.835599 0.204439
540 2 0.807253 0.984141 0.089744
99 1 0.799626 0.816697 0.0600321
753 2 0.809852 0.987314 0.182181
322 1 0.851986 0.901092 0.211946
655 2 0.876138 0.841222 0.124917
396 1 0.892799 0.75148 0.198543
118 1 0.9037 0.89769 0.0471383
667 2 0.754835 0.891977 0.159177
176 1 0.913713 0.997821 0.105695
530 2 0.945551 0.918507 0.183556
386 1 0.607915 0.686446 0.269064
571 2 0.748858 0.74277 0.268858
513 2 0.535277 0.53865 0.361148
393 1 0.712059 0.520982 0.279785
51 1 0.713023 0.591965 0.421663
616 2 0.540939 0.617591 0.305159
694 2 0.678829 0.66404 0.355
13 1 0.587603 0.608024 0.434218
543 2 0.631255 0.58141 0.318362
354 1 0.541606 0.732436 0.45985
273 1 0.562964 0.712763 0.356269
298 1 0.667733 0.697147 0.468701
131 1 0.761449 0.620572 0.319129
852 2 0.750718 0.524583 0.488917
271 1 0.868768 0.576809 0.354418
531 2 0.817444 0.591627 0.253817
90 1 0.919513 0.513398 0.275293
370 1 0.913122 0.6535 0.309313
351 1 0.756087 0.529562 0.36824
262 1 0.800339 0.655511 0.41714
139 1 0.988752 0.579541 0.368437
253 1 0.824856 0.727926 0.331601
171 1 0.906654 0.645888 0.419039
359 1 0.952719 0.529996 0.462128
285 1 0.8353 0.713544 0.497586
542 2 0.642038 0.971583 0.398959
224 1 0.556877 0.820289 0.479338
692 2 0.626557 0.869207 0.349083
728 2 0.550499 0.831059 0.272504
97 1 0.576769 0.944613 0.284418
16 1 0.611807 0.908983 0.461425
798 2 0.524306 0.887416 0.405142
329 1 0.512494 0.982558 0.431549
816 2 0.706303 0.891302 0.433865
669 2 0.661756 0.768208 0.31941
589 2 0.733361 0.905761 0.251194
811 2 0.638385 0.861627 0.256391
698 2 0.516833 0.796552 0.375773
62 1 0.880292 0.981639 0.475683
437 2 0.920815 0.915645 0.28627
185 1 0.993192 0.970978 0.366741
759 2 0.759531 0.976555 0.324783
576 2 0.782517 0.821438 0.254377
697 2 0.987613 0.777448 0.420537
259 1 0.830667 0.856654 0.433833
813 2 0.753731 0.757317 0.465395
105 1 0.885905 0.760131 0.4253
123 1 0.93902 0.874081 0.499263
30 1 0.847844 0.94921 0.370582
440 2 0.952403 0.7967 0.288858
327 1 0.775441 0.811226 0.359244
314 1 0.859585 0.853751 0.30727
857 2 0.946014 0.875648 0.390685
315 1 0.857402 0.996186 0.284999
10 1 0.56547 0.650232 0.521181
199 1 0.670681 0.596551 0.689891
280 1 0.59133 0.56222 0.602728
643 2 0.659171 0.593384 0.507476
267 1 0.734972 0.663572 0.525787
232 1 0.615156 0.700925 0.678837
113 1 0.722027 0.737714 0.710984
766 2 0.707401 0.5569 0.589918
391 1 0.532632 0.562005 0.529484
183 1 0.550418 0.734143 0.587034
85 1 0.574721 0.535728 0.742765
250 1 0.652924 0.672308 0.578433
441 2 0.541668 0.606618 0.696832
282 1 0.547631 0.637912 0.610993
32 1 0.807061 0.587613 0.589502
368 1 0.81906 0.721276 0.597358
473 2 0.919436 0.626708 0.639655
225 1 0.768446 0.664448 0.669905
639 2 0.768241 0.546309 0.68912
94 1 0.875997 0.504002 0.526413
304 1 0.970787 0.504543 0.58749
342 1 0.952844 0.595349 0.521174
361 1 0.946644 0.66615 0.739644
618 2 0.855317 0.673184 0.695385
682 2 0.886173 0.561568 0.744428
227 1 0.891923 0.531661 0.63729
685 2 0.845603 0.612997 0.503931
215 1 0.998982 0.594394 0.682755
802 2 0.934927 0.711191 0.503783
206 1 0.64982 0.782721 0.655955
172 1 0.565996 0.863125 0.576666
418 1 0.701407 0.858972 0.731292
751 2 0.649451 0.912103 0.564953
109 1 0.605538 0.929459 0.65961
252 1 0.725031 0.888777 0.645794
454 2 0.572833 0.874482 0.74698
689 2 0.719538 0.755172 0.58109
251 1 0.742758 0.86054 0.535378
568 2 0.529253 0.954727 0.583875
827 2 0.5094 0.918103 0.69887
808 2 0.522321 0.794882 0.687692
758 2 0.689873 0.968199 0.734224
335 1 0.636095 0.768241 0.511511
295 1 0.817633 0.793881 0.536453
406 1 0.779303 0.801838 0.662028
846 2 0.906976 0.973229 0.676836
472 2 0.754884 0.962612 0.555069
377 1 0.832771 0.883518 0.672675
147 1 0.932865 0.866784 0.619605
61 1 0.855639 0.899426 0.545524
691 2 0.782728 0.986133 0.658334
308 1 0.951559 0.848616 0.717317
162 1 0.973602 0.768441 0.654237
363 1 0.891624 0.779572 0.730981
547 2 0.933455 0.9909 0.587078
532 2 0.982084 0.78307 0.543908
212 1 0.707834 0.610713 0.815931
401 1 0.740978 0.596693 0.983938
635 2 0.557879 0.671758 0.947585
42 1 0.549837 0.541675 0.853494
294 1 0.618009 0.6004 0.783511
623 2 0.659361 0.610785 0.897115
115 1 0.689556 0.716053 0.904737
834 2 0.71376 0.522056 0.782975
602 2 0.547344 0.715859 0.757341
725 2 0.699624 0.516933 0.887297
493 2 0.599661 0.667168 0.845211
130 1 0.875236 0.689642 0.991195
100 1 0.876635 0.726266 0.810575
340 1 0.774199 0.620376 0.895248
799 2 0.786729 0.722194 0.924821
58 1 0.775423 0.500199 0.939618
197 1 0.957512 0.70493 0.86327
4 1 0.790645 0.659479 0.767131
710 2 0.842842 0.587002 0.824955
46 1 0.86101 0.66118 0.889952
581 2 0.958245 0.746765 0.951582
793 2 0.98102 0.507074 0.777861
652 2 0.979877 0.600396 0.94673
562 2 0.961987 0.608383 0.847646
463 2 0.885212 0.576107 0.959094
293 1 0.65397 0.777365 0.991471
822 2 0.626272 0.776665 0.791344
23 1 0.60969 0.981758 0.797822
350 1 0.57274 0.76862 0.886675
450 2 0.695602 0.939544 0.893113
78 1 0.696228 0.806932 0.85772
444 2 0.638745 0.884415 0.815503
476 2 0.585104 0.950955 0.903795
496 2 0.554307 0.855337 0.851435
207 1 0.641187 0.884787 0.954933
666 2 0.728787 0.831691 0.933481
67 1 0.863351 0.821588 0.906248
45 1 0.967894 0.80197 0.860748
560 2 0.814535 0.888426 0.978223
448 2 0.866758 0.957665 0.884007
104 1 0.91893 0.885645 0.94472
673 2 0.786029 0.755134 0.812159
644 2 0.997241 0.971332 0.985894
784 2 0.986528 0.914081 0.883739
360 1 0.838776 0.98088 0.964083
320 1 0.832156 0.942794 0.76619
230 1 0.805288 0.852175 0.798569
111 1 0.901087 0.854633 0.800952
723 2 0.94805 0.963383 0.782539
702 2 0.774612 0.893139 0.89097
