LAMMPS (2 Jun 2022)
OMP_NUM_THREADS environment is not set. Defaulting to 1 thread. (src/comm.cpp:98)
  using 1 OpenMP thread(s) per MPI task
units metal
atom_style atomic
lattice fcc 3.61
Lattice spacing in x,y,z = 3.61 3.61 3.61
region box block 0 5 0 5 0 5
create_box 1 box
Created orthogonal box = (0 0 0) to (18.05 18.05 18.05)
  2 by 2 by 2 MPI processor grid
create_atoms 1 box
Created 500 atoms
  using lattice units in orthogonal box = (0 0 0) to (18.05 18.05 18.05)
  create_atoms CPU = 0.000 seconds
mass 1 64
velocity all create 9000 90000

pair_style lj/cut 3.6
pair_coeff 1 1 0.167 2.314 3.6
neighbor 2.0 bin
neigh_modify every 20 delay 0 check no

fix 1 all nvt temp 9000 9000 100

thermo 1000
thermo_style custom step temp press vol pe ke etotal enthalpy
thermo_modify flush yes
compute 1 all orientorder/atom degrees 3 4 6 8
dump 1 all custom 1000 dump.traj id type x y z c_1[1] c_1[2] c_1[3]
run 1000000
Generated 0 of 0 mixed pair_coeff terms from geometric mixing rule
Neighbor list info ...
  update every 20 steps, delay 0 steps, check no
  max neighbors/atom: 2000, page size: 100000
  master list distance cutoff = 5.6
  ghost atom cutoff = 5.6
  binsize = 2.8, bins = 7 7 7
  2 neighbor lists, perpetual/occasional/extra = 1 1 0
  (1) pair lj/cut, perpetual
      attributes: half, newton on
      pair build: half/bin/atomonly/newton
      stencil: half/bin/3d
      bin: standard
  (2) compute orientorder/atom, occasional
      attributes: full, newton on
      pair build: full/bin/atomonly
      stencil: full/bin/3d
      bin: standard
Per MPI rank memory allocation (min/avg/max) = 4.856 | 4.856 | 4.856 Mbytes
   Step          Temp          Press          Volume         PotEng         KinEng         TotEng        Enthalpy   
         0   9000           171989.16      5880.7351     -494.9565       580.50731      85.550812      716.83125    
      1000   4778.7342      490404.86      5880.7351     -252.8573       308.23224      55.374942      1855.3895    
      2000   4636.9044      501224.22      5880.7351     -243.62097      299.0841       55.463127      1895.1898    
      3000   4437.5069      515123.63      5880.7351     -230.98829      286.2228       55.234515      1945.9785    
      4000   4090.0932      545153.06      5880.7351     -208.61545      263.81433      55.198882      2056.1649    
      5000   4138.1114      539680.59      5880.7351     -211.23857      266.91155      55.672982      2036.5525    
      6000   3968.3524      551897.41      5880.7351     -199.64251      255.96196      56.319443      2082.0404    
      7000   4056.3975      544320.79      5880.7351     -206.19765      261.64094      55.443287      2053.3545    
      8000   4024.9017      546506.48      5880.7351     -204.38154      259.60943      55.227891      2061.1616    
      9000   4091.2541      545348.05      5880.7351     -207.0603       263.88921      56.828916      2058.5107    
     10000   4116.5113      542853.15      5880.7351     -209.17673      265.51832      56.341588      2048.8659    
     11000   4231.4532      532898.67      5880.7351     -216.74218      272.93217      56.18999       2012.1767    
     12000   4025.5977      550990.03      5880.7351     -202.46261      259.65432      57.191708      2079.5822    
     13000   4078.9946      547686.25      5880.7351     -205.84879      263.09847      57.249679      2067.5137    
     14000   3922.947       557676.88      5880.7351     -197.62613      253.03327      55.40714       2102.3414    
     15000   4221.8426      537191.26      5880.7351     -213.58936      272.31228      58.722924      2030.4654    
     16000   4169.3982      542168.99      5880.7351     -209.66048      268.92957      59.269091      2049.2822    
     17000   4147.7537      546458.08      5880.7351     -207.70076      267.53348      59.832717      2065.5888    
     18000   4166.9241      543022.34      5880.7351     -209.80278      268.76999      58.967216      2052.1125    
     19000   4101.8458      548428.7       5880.7351     -205.62745      264.57239      58.944942      2071.9341    
     20000   3995.3193      556434.86      5880.7351     -196.6009       257.70134      61.100443      2103.4759    
     21000   3990.1237      556867.42      5880.7351     -197.22114      257.36622      60.145082      2104.1083    
     22000   4199.5587      543222.08      5880.7351     -209.04026      270.87495      61.834691      2055.7131    
     23000   4322.2594      536380.12      5880.7351     -216.04135      278.78925      62.7479        2031.5131    
     24000   4163.6072      547963.26      5880.7351     -205.55355      268.55605      63.002503      2074.2833    
     25000   4235.5403      545970.63      5880.7351     -209.68365      273.19579      63.512143      2067.479     
     26000   4137.2564      553546.48      5880.7351     -201.99025      266.8564       64.86615       2096.6399    
     27000   4177.4355      550543         5880.7351     -203.85007      269.44798      65.597906      2086.3475    
     28000   4204.1887      550994.88      5880.7351     -203.62173      271.17359      67.551857      2089.9601    
     29000   4261.4207      546043.32      5880.7351     -206.20594      274.8651       68.659156      2072.8928    
     30000   4213.0968      551388.72      5880.7351     -203.99544      271.74816      67.75272       2091.6065    
     31000   4039.3355      565289         5880.7351     -191.22055      260.54042      69.319874      2144.1942    
     32000   4367.3822      539569.06      5880.7351     -214.46994      281.6997       67.22976       2047.6999    
     33000   4126.0587      561928.89      5880.7351     -196.56981      266.13414      69.564321      2132.1055    
     34000   4226.5243      553105.24      5880.7351     -201.22845      272.61425      71.385804      2101.5401    
     35000   4313.4218      549359.03      5880.7351     -206.09568      278.21921      72.123534      2088.5274    
     36000   4191.0336      558205.15      5880.7351     -198.75114      270.32507      71.57393       2120.4472    
     37000   4362.4052      545416.39      5880.7351     -209.7145       281.37868      71.664176      2073.5968    
     38000   4184.3642      561053.36      5880.7351     -196.06501      269.89489      73.829878      2133.1574    
     39000   4199.7264      559253.91      5880.7351     -197.65501      270.88576      73.230753      2125.9535    
     40000   4366.1215      548695.46      5880.7351     -205.67091      281.61839      75.947472      2089.9157    
     41000   4274.7373      555821.27      5880.7351     -200.08003      275.72403      75.643993      2115.7673    
     42000   4284.3538      559652.03      5880.7351     -200.67737      276.3443       75.666934      2129.851     
     43000   4380.6031      550410.05      5880.7351     -205.83703      282.55246      76.715428      2096.9771    
     44000   4415.6433      547446.35      5880.7351     -207.47722      284.81258      77.335368      2086.7188    
     45000   4388.4679      551824.2       5880.7351     -204.36956      283.05975      78.690189      2104.1424    
     46000   4305.9415      558917.16      5880.7351     -199.18666      277.73672      78.550062      2130.0367    
     47000   4280.0063      561476.37      5880.7351     -196.65703      276.06388      79.406854      2140.2871    
     48000   4453.4374      549622.23      5880.7351     -205.93199      287.25033      81.318343      2098.6883    
     49000   4338.5172      558446.97      5880.7351     -198.57337      279.83788      81.264516      2131.0254    
     50000   4319.3287      559340.15      5880.7351     -198.1291       278.60021      80.471107      2133.5104    
     51000   4130.5099      575238.11      5880.7351     -185.55067      266.42125      80.870574      2192.2628    
     52000   4186.2075      574122.75      5880.7351     -188.14079      270.01378      81.872993      2189.1713    
     53000   4495.4906      548889.11      5880.7351     -206.66748      289.9628       83.295319      2097.9744    
     54000   4169.4886      576249.42      5880.7351     -184.13361      268.9354       84.801793      2199.906     
     55000   4453.1383      558247.81      5880.7351     -202.89216      287.23104      84.338882      2133.3688    
     56000   4212.5974      571777.19      5880.7351     -187.10324      271.71595      84.612719      2183.3017    
     57000   4340.5706      565441.53      5880.7351     -194.78736      279.97033      85.182967      2160.6171    
     58000   4373.0081      563107.41      5880.7351     -195.47077      282.06257      86.591802      2153.4587    
     59000   4268.6552      570341.01      5880.7351     -190.01276      275.33173      85.318965      2178.7365    
     60000   4208.2273      575451.75      5880.7351     -185.02571      271.43408      86.408368      2198.5847    
     61000   4379.1094      565028.44      5880.7351     -196.17715      282.45611      86.27896       2160.1969    
     62000   4590.7933      550734.93      5880.7351     -207.83881      296.1099       88.271087      2109.7252    
     63000   4341.3496      570057.09      5880.7351     -191.68254      280.02057      88.338037      2180.7135    
     64000   4390.3132      565834.26      5880.7351     -193.63319      283.17877      89.545583      2166.4213    
     65000   4254.5952      578184.7       5880.7351     -184.88792      274.42485      89.536924      2211.7445    
     66000   4619.9638      553056.51      5880.7351     -206.90522      297.99142      91.086193      2121.0616    
     67000   4301.1097      575667.06      5880.7351     -184.81477      277.42507      92.610297      2205.5769    
     68000   4401.2494      570486.2       5880.7351     -191.14078      283.88416      92.743377      2186.6938    
     69000   4378.5899      574079.36      5880.7351     -189.44469      282.42261      92.97792       2200.117     
     70000   4508.3948      565852.8       5880.7351     -195.8567       290.79513      94.938422      2171.8822    
     71000   4568.2639      558883.91      5880.7351     -200.126        294.65673      94.530735      2145.8954    
     72000   4433.6828      571155.79      5880.7351     -191.0437       285.97614      94.932444      2191.3406    
     73000   4548.9626      562995.13      5880.7351     -196.49356      293.41178      96.918219      2163.373     
     74000   4500.1952      568601.89      5880.7351     -191.28539      290.26625      98.980861      2186.015     
     75000   4492.2532      569784.12      5880.7351     -192.80736      289.75398      96.946616      2188.3201    
     76000   4580.5752      566168.02      5880.7351     -196.81808      295.45082      98.632741      2176.7335    
     77000   4447.4862      576213.13      5880.7351     -187.83528      286.86647      99.031196      2214.0022    
     78000   4552.1287      566566.77      5880.7351     -194.33503      293.616        99.280966      2178.8453    
     79000   4527.0619      572307.79      5880.7351     -191.18387      291.99917      100.8153       2201.4519    
     80000   4433.6188      579567.03      5880.7351     -184.61596      285.97201      101.35605      2228.6374    
     81000   4431.968       580913.78      5880.7351     -183.94712      285.86553      101.91842      2234.143     
     82000   4516.2024      575945.27      5880.7351     -189.08762      291.29872      102.21111      2216.1989    
     83000   4514.1661      575379.01      5880.7351     -186.20588      291.16738      104.9615       2216.8708    
     84000   4545.0889      574624.53      5880.7351     -189.48801      293.16193      103.67392      2212.814     
     85000   4441.7455      583720.15      5880.7351     -180.8402       286.4962       105.656        2248.1812    
     86000   4727.5075      562768.36      5880.7351     -199.27035      304.92807      105.65772      2171.2801    
     87000   4591.0396      574472.06      5880.7351     -189.34875      296.12578      106.77704      2215.3575    
     88000   4616.0748      574482.91      5880.7351     -189.44517      297.74058      108.29541      2216.9157    
     89000   4423.9233      589528.76      5880.7351     -176.58509      285.34665      108.76156      2272.6071    
     90000   4625.1299      576951.88      5880.7351     -187.80364      298.32464      110.521        2228.2035    
     91000   4670.5066      576497.01      5880.7351     -190.01352      301.25147      111.23795      2227.2509    
     92000   4714.5436      572318.28      5880.7351     -192.55336      304.09189      111.53853      2212.2136    
     93000   4587.5963      581456.82      5880.7351     -183.73136      295.90369      112.17233      2246.3901    
     94000   4592.6547      582279.16      5880.7351     -183.31391      296.22996      112.91605      2250.1522    
     95000   4707.9413      576666.53      5880.7351     -189.60963      303.66604      114.0564       2230.6916    
     96000   4591.5168      586406.38      5880.7351     -180.51699      296.15657      115.63957      2268.0245    
     97000   4334.1975      604397.38      5880.7351     -164.83916      279.55926      114.7201       2333.1404    
     98000   4570.7261      589191.64      5880.7351     -178.89964      294.81555      115.91591      2278.5241    
     99000   4493.9589      595011.15      5880.7351     -173.53047      289.864        116.33353      2300.302     
    100000   4561.3388      591615.55      5880.7351     -176.88904      294.21006      117.32102      2288.826     
    101000   4921.1372      566341.42      5880.7351     -199.54344      317.41735      117.87391      2196.6111    
    102000   4564.429       595214.75      5880.7351     -175.01346      294.40938      119.39592      2304.1117    
    103000   4760.7004      581096.74      5880.7351     -185.67095      307.06905      121.3981       2254.2942    
    104000   4598.1928      592751.79      5880.7351     -175.50588      296.58717      121.08129      2296.7569    
    105000   4690.3971      591186.08      5880.7351     -179.02656      302.53442      123.50786      2293.4365    
    106000   4571.8819      598753.21      5880.7351     -170.0757       294.8901       124.81439      2322.518     
    107000   4581.6683      596096.63      5880.7351     -171.71406      295.52133      123.80727      2311.76      
    108000   4668.8598      594474.91      5880.7351     -175.76602      301.14525      125.37923      2307.3795    
    109000   4737.2726      590017.45      5880.7351     -179.44265      305.55793      126.11528      2291.7546    
    110000   4613.7337      599499.3       5880.7351     -170.71983      297.58957      126.86974      2327.3118    
    111000   4852.1184      582082.05      5880.7351     -185.23145      312.96558      127.73413      2264.2468    
    112000   4803.8067      587842.97      5880.7351     -180.78402      309.84943      129.06541      2286.7233    
    113000   4612.7048      604117.78      5880.7351     -168.36874      297.52321      129.15447      2346.5485    
    114000   4650.1763      600949.61      5880.7351     -168.68119      299.94015      131.25896      2337.0243    
    115000   4701.0559      600142.39      5880.7351     -170.41252      303.22193      132.8094       2335.6119    
    116000   4696.7295      602658.1       5880.7351     -169.93555      302.94287      133.00731      2345.0437    
    117000   4641.0664      605987.05      5880.7351     -166.31248      299.35255      133.04007      2357.2952    
    118000   4853.4801      591205.31      5880.7351     -178.52231      313.05341      134.5311       2304.5304    
    119000   4972.4522      583151.65      5880.7351     -186.0638       320.7272       134.6634       2275.102     
    120000   4601.2486      612711.81      5880.7351     -160.05532      296.78427      136.72896      2385.6671    
    121000   4787.7344      597934.88      5880.7351     -172.02007      308.81276      136.79269      2331.4926    
    122000   4814.899       597319.79      5880.7351     -173.78436      310.5649       136.78054      2329.2228    
    123000   4839.1954      601420.6       5880.7351     -171.92232      312.13204      140.20972      2347.7039    
    124000   4617.8338      613725.79      5880.7351     -157.93479      297.85403      139.91924      2392.5792    
    125000   4622.8387      617563.22      5880.7351     -157.73201      298.17685      140.44485      2407.1899    
    126000   4873.8133      600891.38      5880.7351     -173.28816      314.36492      141.07676      2346.6284    
    127000   4758.2406      608015.11      5880.7351     -164.70275      306.91039      142.20763      2373.9067    
    128000   4999.6396      594660.52      5880.7351     -177.56921      322.48082      144.91161      2327.5931    
    129000   4874.772       603564.08      5880.7351     -169.68863      314.42675      144.73812      2360.0998    
    130000   4973.1008      599816.58      5880.7351     -173.86747      320.76904      146.90157      2348.5082    
    131000   4796.578       613501.08      5880.7351     -162.83038      309.38318      146.5528       2398.388     
    132000   4995.7519      601958.96      5880.7351     -175.20721      322.23006      147.02284      2356.493     
    133000   5058.6268      596795.59      5880.7351     -177.03921      326.28554      149.24633      2339.7645    
    134000   4866.3991      610959.44      5880.7351     -163.99565      313.88669      149.89105      2392.3972    
    135000   4870.7927      614335.04      5880.7351     -162.55179      314.17009      151.6183       2406.5144    
    136000   4800.1026      619522.76      5880.7351     -157.62263      309.61052      151.98789      2425.9254    
    137000   4889.0041      611741.51      5880.7351     -162.72255      315.34474      152.62219      2397.9989    
    138000   5078.7091      601133.02      5880.7351     -172.77558      327.58086      154.80528      2361.2439    
    139000   4905.4159      615377.26      5880.7351     -162.43446      316.40331      153.96885      2412.6905    
    140000   5066.5443      605610.7       5880.7351     -171.1202       326.79622      155.67602      2378.5498    
    141000   4860.9071      621730.75      5880.7351     -157.11145      313.53246      156.42101      2438.4629    
    142000   4906.6952      620045.3       5880.7351     -159.00665      316.48582      157.47918      2433.3347    
    143000   4833.9049      626545.63      5880.7351     -153.22588      311.79079      158.56492      2458.2797    
    144000   4876.1201      622710.49      5880.7351     -155.3015       314.51371      159.21221      2444.8502    
    145000   4804.7194      631591.57      5880.7351     -147.95931      309.9083       161.949        2480.1847    
    146000   5042.8292      614595.3       5880.7351     -163.46621      325.26658      161.80036      2417.6518    
    147000   4939.1256      623488.12      5880.7351     -156.79132      318.57762      161.7863       2450.2785    
    148000   5000.005       621616.5       5880.7351     -157.46087      322.50438      165.04351      2446.6661    
    149000   4942.6147      626043.88      5880.7351     -154.05249      318.80267      164.75017      2462.6232    
    150000   4928.087       625373.3       5880.7351     -151.90404      317.86561      165.96158      2461.3733    
    151000   5231.5139      607338.83      5880.7351     -170.69593      337.4369       166.74097      2395.9578    
    152000   5077.1807      620288.55      5880.7351     -159.55352      327.48228      167.92876      2444.6771    
    153000   4857.162       640189.06      5880.7351     -144.09827      313.29089      169.19263      2518.9851    
    154000   5208.0016      613209.37      5880.7351     -166.23489      335.92033      169.68544      2420.4499    
    155000   5321.4486      605760.47      5880.7351     -171.88122      343.23776      171.35654      2394.78      
    156000   5094.1264      626348.9       5880.7351     -155.96361      328.57529      172.61168      2471.6043    
    157000   4878.5285      640880.49      5880.7351     -141.25623      314.66905      173.41283      2525.7432    
    158000   5214.304       619029.65      5880.7351     -162.28175      336.32685      174.0451       2446.1727    
    159000   5192.108       621358.97      5880.7351     -159.90452      334.89518      174.99067      2455.6679    
    160000   5212.556       621339.34      5880.7351     -159.32282      336.2141       176.89128      2457.4965    
    161000   5270.3917      619318.33      5880.7351     -162.02975      339.94455      177.91479      2451.102     
    162000   5056.1404      635248.18      5880.7351     -147.55407      326.12516      178.57109      2510.2282    
    163000   5096.9438      636845.93      5880.7351     -148.82611      328.75702      179.93091      2517.4525    
    164000   4891.8081      650093.92      5880.7351     -134.76512      315.5256       180.76048      2566.9084    
    165000   5395.0352      616108.62      5880.7351     -165.38068      347.98415      182.60348      2444.0095    
    166000   5159.1461      632572.3       5880.7351     -150.88454      332.76912      181.88458      2503.72      
    167000   5141.9275      634992.35      5880.7351     -147.70383      331.6585       183.95467      2514.6728    
    168000   5005.5782      644879.08      5880.7351     -138.36245      322.86386      184.50141      2551.5084    
    169000   5180.6776      637695.88      5880.7351     -148.5619       334.15791      185.59602      2526.2374    
    170000   5102.3323      644457.69      5880.7351     -142.30125      329.10458      186.80333      2552.2637    
    171000   5268.3775      633123.25      5880.7351     -151.14494      339.81463      188.66969      2512.5273    
    172000   5365.0234      628798.54      5880.7351     -157.66333      346.04837      188.38504      2496.369     
    173000   5223.5802      638652.15      5880.7351     -146.7317       336.92517      190.19347      2534.3448    
    174000   5175.327       644523.81      5880.7351     -141.46176      333.81279      192.35104      2558.0541    
    175000   5224.1618      642178.51      5880.7351     -144.06706      336.96268      192.89562      2549.9903    
    176000   5437.6509      627604.96      5880.7351     -157.22761      350.7329       193.50529      2497.1083    
    177000   5489.2173      623837.54      5880.7351     -160.02503      354.05897      194.03394      2483.8087    
    178000   5279.0409      641661.21      5880.7351     -145.31673      340.50243      195.1857       2550.3817    
    179000   5333.1296      640853.93      5880.7351     -145.27868      343.99119      198.71251      2550.9454    
    180000   5385.1318      636842.09      5880.7351     -149.53831      347.34537      197.80707      2535.3146    
    181000   5211.6889      650346.78      5880.7351     -137.26922      336.15817      198.88895      2585.965     
    182000   5383.7487      638729.05      5880.7351     -146.49301      347.25617      200.76315      2545.1967    
    183000   5400.9674      640257.74      5880.7351     -147.09721      348.36678      201.26957      2551.3141    
    184000   5500.6568      635292.13      5880.7351     -153.08861      354.79683      201.70822      2533.5267    
    185000   5204.8122      658512.15      5880.7351     -131.04912      335.71462      204.6655       2621.7123    
    186000   5374.55        646398.06      5880.7351     -141.69922      346.66284      204.96362      2577.546     
    187000   5338.169       651324.27      5880.7351     -139.20273      344.31624      205.11351      2595.7774    
    188000   5217.1626      661623.27      5880.7351     -129.60583      336.51123      206.90539      2635.3714    
    189000   5082.648       671033.19      5880.7351     -118.85473      327.83492      208.98019      2671.985     
    190000   5516.1102      643127.82      5880.7351     -146.77209      355.79359      209.02149      2569.6006    
    191000   5581.0001      641068.99      5880.7351     -148.97013      359.97904      211.00891      2564.0312    
    192000   5413.3784      654824.64      5880.7351     -136.53469      349.1673       212.63261      2616.1445    
    193000   5497.0263      646371.02      5880.7351     -143.23649      354.56266      211.32617      2583.8093    
    194000   5521.967       648984.58      5880.7351     -142.43182      356.17135      213.73953      2595.8157    
    195000   5738.7049      634698.31      5880.7351     -154.72019      370.15113      215.43094      2545.0698    
    196000   5551.5133      648678.92      5880.7351     -141.87936      358.07712      216.19776      2597.152     
    197000   5703.7078      639490.95      5880.7351     -149.7909       367.89379      218.10289      2565.333     
    198000   5318.5056      666515.91      5880.7351     -124.744        343.04793      218.30394      2664.7282    
    199000   5660.1302      645618.67      5880.7351     -145.92805      365.08299      219.15494      2588.8766    
    200000   5666.4667      647107.6       5880.7351     -146.40442      365.4917       219.08729      2594.274     
    201000   5286.8256      677514.82      5880.7351     -119.76542      341.00454      221.23913      2708.0345    
    202000   5483.4246      665627.96      5880.7351     -130.37911      353.68534      223.30623      2666.4713    
    203000   5322.055       677429.95      5880.7351     -119.83579      343.27687      223.44108      2709.925     
    204000   5502.5983      662051.08      5880.7351     -130.83499      354.92206      224.08707      2654.1233    
    205000   5623.3602      655832.06      5880.7351     -137.04973      362.7113       225.66157      2632.8711    
    206000   5564.105       660856.89      5880.7351     -130.529        358.88929      228.36029      2654.0133    
    207000   5718.2675      654146.79      5880.7351     -139.38666      368.8329       229.44624      2630.4701    
    208000   5667.7933      660060.38      5880.7351     -133.89342      365.57727      231.68385      2654.4133    
    209000   5507.3485      671740.93      5880.7351     -123.87084      355.22845      231.35761      2696.9602    
    210000   5612.6978      667662.76      5880.7351     -128.57669      362.02357      233.44688      2684.0806    
    211000   5882.0618      647965.62      5880.7351     -145.96945      379.39777      233.42832      2611.7644    
    212000   5702.6863      664330.44      5880.7351     -132.01098      367.8279       235.81692      2674.2195    
    213000   5639.1283      670135.13      5880.7351     -127.35591      363.72835      236.37245      2696.081     
    214000   5941.068       649915.71      5880.7351     -145.71668      383.20371      237.48703      2622.9809    
    215000   5785.5348      663974.77      5880.7351     -133.85991      373.17169      239.31179      2676.4089    
    216000   5832.0447      659374.26      5880.7351     -137.03687      376.17162      239.13475      2659.3459    
    217000   5892.2116      657184.01      5880.7351     -137.74881      380.05244      242.30363      2654.4755    
    218000   5471.2121      690971.3       5880.7351     -108.91149      352.89762      243.98613      2780.1731    
    219000   5633.4952      680608.24      5880.7351     -119.15661      363.36502      244.2084       2742.3581    
    220000   5739.4816      674542.24      5880.7351     -125.50647      370.20123      244.69476      2720.5794    
    221000   5922.1785      660015.86      5880.7351     -136.07255      381.98533      245.91277      2668.4789    
    222000   5645.0213      684046.71      5880.7351     -116.84995      364.10846      247.25851      2758.029     
    223000   5948.6714      664682.36      5880.7351     -134.49392      383.69414      249.20022      2688.8945    
    224000   5795.9921      674497.3       5880.7351     -123.46331      373.8462       250.3829       2726.1026    
    225000   5732.5062      682981.07      5880.7351     -118.68997      369.75131      251.06133      2757.9204    
    226000   5681.6215      685009.51      5880.7351     -114.52263      366.4692       251.94657      2766.251     
    227000   5666.4933      688244.51      5880.7351     -112.42374      365.49342      253.06968      2779.2481    
    228000   5680.2319      689919.23      5880.7351     -111.8219       366.37957      254.55767      2786.8831    
    229000   5695.3632      690792.62      5880.7351     -111.58439      367.35555      255.77116      2791.3023    
    230000   5610.3216      699981.04      5880.7351     -104.29854      361.8703       257.57176      2826.8287    
    231000   5870.5985      681978.92      5880.7351     -121.01722      378.65837      257.64115      2760.8219    
    232000   5892.5395      680198.47      5880.7351     -122.76789      380.07359      257.30569      2753.9514    
    233000   6350.8847      646986.96      5880.7351     -149.12615      409.63722      260.51107      2635.255     
    234000   5639.4525      700690.13      5880.7351     -101.88542      363.74927      261.86385      2833.7235    
    235000   5848.473       689379.48      5880.7351     -113.55715      377.23126      263.6741       2794.0184    
    236000   5673.345       706313.38      5880.7351     -100.83638      365.93536      265.09898      2857.5986    
    237000   6199.2952      667041.46      5880.7351     -133.49447      399.85957      266.36511      2714.7184    
    238000   5978.345       683671.93      5880.7351     -119.87869      385.60811      265.72942      2775.1243    
    239000   6155.6741      675710.69      5880.7351     -127.73814      397.04598      269.30784      2749.4813    
    240000   5952.7986      687775.73      5880.7351     -117.22803      383.96035      266.73232      2791.1901    
    241000   5874.7469      696423.23      5880.7351     -108.11365      378.92595      270.8123       2827.0104    
    242000   5957.5831      691501.27      5880.7351     -112.78246      384.26895      271.48649      2809.6187    
    243000   5993.7906      691139.6       5880.7351     -111.86324      386.60436      274.74113      2811.5459    
    244000   6427.3171      662249.69      5880.7351     -140.32746      414.56718      274.23971      2705.005     
    245000   5804.9431      708166.95      5880.7351     -99.053724      374.42355      275.36982      2874.6729    
    246000   6033.7784      693644.21      5880.7351     -112.38478      389.18361      276.79883      2822.7967    
    247000   6081.6651      694170.36      5880.7351     -113.84514      392.27234      278.4272       2826.3562    
    248000   5986.1762      698049.15      5880.7351     -108.7678       386.11323      277.34542      2839.5114    
    249000   6244.1304      682890.13      5880.7351     -121.80062      402.75148      280.95086      2787.4762    
    250000   6249.5649      687981.59      5880.7351     -120.33342      403.10201      282.7686       2807.9819    
    251000   6235.2915      688381.68      5880.7351     -120.32569      402.18137      281.85568      2808.5375    
    252000   6282.633       684496.45      5880.7351     -122.11885      405.23493      283.11608      2795.5373    
    253000   6358.2595      682159.31      5880.7351     -124.68501      410.1129       285.42789      2789.2708    
    254000   6179.8008      700338.85      5880.7351     -110.32559      398.60217      288.27658      2858.8469    
    255000   6198.7725      695339.42      5880.7351     -111.29511      399.82586      288.53075      2840.7508    
    256000   6015.5674      710905.73      5880.7351     -98.819084      388.00898      289.1899       2898.5456    
    257000   6042.4475      709928.77      5880.7351     -99.78977       389.74277      289.953        2895.7227    
    258000   6341.6029      689894.29      5880.7351     -118.09503      409.03854      290.94351      2823.1774    
    259000   6036.3673      715528.76      5880.7351     -95.708256      389.3506       293.64234      2919.9667    
    260000   6063.3595      713848.89      5880.7351     -97.454304      391.09161      293.63731      2913.7957    
    261000   6113.6872      712505.62      5880.7351     -97.442038      394.33779      296.89575      2912.1237    
    262000   6183.6401      709364.59      5880.7351     -101.3455       398.84981      297.50431      2901.2033    
    263000   6118.5917      714560.13      5880.7351     -96.605347      394.65413      298.04879      2920.8178    
    264000   6464.1137      691265.35      5880.7351     -118.10868      416.94058      298.8319       2836.0982    
    265000   6292.2406      707121.19      5880.7351     -104.69934      405.85463      301.15529      2896.6199    
    266000   6112.3727      721154.06      5880.7351     -93.082689      394.25301      301.17032      2948.1421    
    267000   6361.2954      708583.15      5880.7351     -106.15845      410.30872      304.15027      2904.981     
    268000   6345.4775      709290.73      5880.7351     -103.84989      409.28845      305.43856      2908.8664    
    269000   6121.9188      727181.26      5880.7351     -87.370079      394.86874      307.49866      2976.5931    
    270000   6226.786       719975.63      5880.7351     -94.815989      401.63276      306.81677      2949.4632    
    271000   6380.2751      708651.68      5880.7351     -102.99379      411.53293      308.53914      2909.6214    
    272000   6207.9814      723599.9       5880.7351     -91.309616      400.41984      309.11023      2965.0594    
    273000   6422.6748      708560.78      5880.7351     -103.48073      414.26774      310.78701      2911.5356    
    274000   6298.3113      721500.31      5880.7351     -93.55399       406.2462       312.69221      2960.9349    
    275000   6264.5741      722872.15      5880.7351     -90.152878      404.07012      313.91724      2967.1952    
    276000   6482.0861      709883.36      5880.7351     -102.41591      418.09982      315.68391      2921.287     
    277000   6495.1548      711660.6       5880.7351     -102.60742      418.94276      316.33534      2928.4617    
    278000   6410.8351      721079.01      5880.7351     -94.847751      413.50407      318.65632      2965.3526    
    279000   6196.9892      734821.76      5880.7351     -81.047393      399.71084      318.66344      3015.8021    
    280000   6254.5443      734005.21      5880.7351     -84.448295      403.42319      318.97489      3013.1164    
    281000   6343.6461      730091.06      5880.7351     -87.304827      409.17033      321.8655       3001.6403    
    282000   6487.066       719356.3       5880.7351     -95.206202      418.42102      323.21482      2963.588     
    283000   6365.5804      730160.33      5880.7351     -86.712857      410.58511      323.87225      3003.9013    
    284000   6467.5192      723927.99      5880.7351     -91.941181      417.16024      325.21906      2982.3725    
    285000   6708.5996      711600.79      5880.7351     -105.54016      432.71013      327.16997      2939.0768    
    286000   6341.936       740085.7       5880.7351     -80.37898       409.06003      328.68105      3045.1408    
    287000   6272.27        744479.95      5880.7351     -74.506687      404.56651      330.05982      3062.6485    
    288000   6618.3814      721301.59      5880.7351     -96.300015      426.89098      330.59096      2978.1043    
    289000   6280.0969      750182.1       5880.7351     -71.833897      405.07135      333.23746      3086.7557    
    290000   6686.7666      720599.11      5880.7351     -97.460724      431.30188      333.84116      2978.776     
    291000   6457.5352      739215.65      5880.7351     -81.193562      416.51626      335.3227       3048.589     
    292000   6546.172       732573.93      5880.7351     -86.965216      422.23341      335.2682       3024.1562    
    293000   6492.1366      740224.76      5880.7351     -80.059848      418.74808      338.68823      3055.6584    
    294000   6479.4583      742538.71      5880.7351     -78.309313      417.93032      339.62101      3065.0844    
    295000   6502.3079      744094.18      5880.7351     -78.035677      419.40414      341.36847      3072.5412    
    296000   6577.6246      739423.46      5880.7351     -81.136461      424.26213      343.12567      3057.1547    
    297000   6629.3063      734989         5880.7351     -85.356252      427.59564      342.23939      3039.9919    
    298000   6712.1081      731390.12      5880.7351     -89.786434      432.93643      343.14999      3027.6929    
    299000   6621.1201      743707.97      5880.7351     -80.92016       427.06762      346.14746      3075.9026    
    300000   6660.0954      743771.14      5880.7351     -82.527019      429.58156      347.05454      3077.0416    
    301000   6724.6311      736872.05      5880.7351     -86.666222      433.74417      347.07795      3051.7421    
    302000   6394.3216      763961.84      5880.7351     -62.606382      412.43894      349.83256      3153.9289    
    303000   6776.4129      737832.86      5880.7351     -85.191003      437.08414      351.89313      3060.0839    
    304000   6457.3785      762050.33      5880.7351     -64.26439       416.50616      352.24177      3149.322     
    305000   6811.4353      740986.87      5880.7351     -84.659604      439.34311      354.68351      3074.451     
    306000   6798.0245      741868.12      5880.7351     -83.466491      438.4781       355.01161      3078.0137    
    307000   6417.7096      769260.83      5880.7351     -57.75348       413.94748      356.194        3179.7401    
    308000   6836.3352      744707.58      5880.7351     -83.151577      440.94917      357.79759      3091.2218    
    309000   6678.4171      753438.62      5880.7351     -72.608         430.76333      358.15533      3123.6265    
    310000   6712.2114      753692.19      5880.7351     -72.479978      432.94309      360.46311      3126.865     
    311000   6908.5863      744107.01      5880.7351     -82.298779      445.60943      363.31065      3094.5305    
    312000   7013.7403      733955.26      5880.7351     -88.974133      452.39195      363.41782      3057.376     
    313000   6735.6529      755733.41      5880.7351     -70.745075      434.45508      363.71001      3137.6041    
    314000   6577.0382      773156.43      5880.7351     -58.049512      424.22431      366.1748       3204.0195    
    315000   6797.2773      756929.23      5880.7351     -70.860785      438.42991      367.56912      3145.8525    
    316000   6748.3696      760027.32      5880.7351     -67.407266      435.27532      367.86806      3157.5229    
    317000   6652.9307      770626.01      5880.7351     -58.351088      429.11944      370.76835      3199.3253    
    318000   6878.0139      758174.58      5880.7351     -72.229982      443.63748      371.4075       3154.2619    
    319000   6817.9198      761477.03      5880.7351     -67.329424      439.76137      372.43194      3167.4079    
    320000   6940.8764      753154.9       5880.7351     -75.840847      447.69217      371.85132      3136.2811    
    321000   6901.3266      758208.56      5880.7351     -69.531472      445.14117      375.6097       3158.5888    
    322000   6858.4854      765975.8       5880.7351     -65.131269      442.37788      377.24661      3188.7351    
    323000   6692.0619      779802.38      5880.7351     -52.39564       431.64343      379.24779      3241.4863    
    324000   7021.2751      752966.07      5880.7351     -73.726674      452.87795      379.15127      3142.888     
    325000   7127.4758      750015.37      5880.7351     -78.863828      459.72798      380.86415      3133.7704    
    326000   6804.4697      776162.33      5880.7351     -57.443431      438.89382      381.45039      3230.3282    
    327000   7037.318       762283.43      5880.7351     -69.71622       453.91273      384.19651      3182.1323    
    328000   6934.417       767584.12      5880.7351     -62.979195      447.27553      384.29634      3201.6881    
    329000   6622.2828      791287.09      5880.7351     -41.129575      427.14262      386.01304      3290.4058    
    330000   7029.8629      763273.95      5880.7351     -66.173115      453.43187      387.25875      3188.8302    
    331000   6894.7633      775150.52      5880.7351     -57.681945      444.71783      387.03589      3232.1999    
    332000   6951.4155      774222.39      5880.7351     -57.649325      448.37195      390.72262      3232.4799    
    333000   7096.2049      767043.83      5880.7351     -66.164041      457.71098      391.54694      3206.9556    
    334000   7063.8504      767260.35      5880.7351     -63.293486      455.62409      392.3306       3208.534     
    335000   6962.0368      777792.92      5880.7351     -56.487526      449.05703      392.5695       3247.4323    
    336000   7064.5232      772993.42      5880.7351     -62.747172      455.66749      392.92032      3230.1667    
    337000   7133.214       773564.32      5880.7351     -60.967794      460.0981       399.13031      3238.4722    
    338000   6961.045       785043.29      5880.7351     -50.094023      448.99306      398.89904      3280.3741    
    339000   7083.2747      779089.15      5880.7351     -57.287904      456.87697      399.58907      3259.2097    
    340000   7310.2496      761513.33      5880.7351     -70.820334      471.51704      400.6967       3195.8058    
    341000   6968.2152      787105.81      5880.7351     -48.340458      449.45554      401.11508      3290.1606    
    342000   6927.7432      792363.67      5880.7351     -44.154222      446.84506      402.69084      3311.0351    
    343000   7410.5233      761990.36      5880.7351     -72.509881      477.98477      405.47489      3202.3349    
    344000   7393.3071      766870.38      5880.7351     -70.495809      476.87431      406.3785       3221.1505    
    345000   7379.8209      768228.01      5880.7351     -68.626699      476.00444      407.37774      3227.1329    
    346000   7266.2795      772729.89      5880.7351     -59.34452       468.68093      409.33641      3245.6156    
    347000   7077.2312      789310.48      5880.7351     -46.891855      456.48716      409.59531      3306.733     
    348000   7313.9663      776066.64      5880.7351     -61.314688      471.75676      410.44208      3258.9687    
    349000   7220.0218      784563.12      5880.7351     -52.510908      465.69727      413.18636      3292.899     
    350000   7450.018       773208.91      5880.7351     -65.795244      480.53221      414.73697      3252.7743    
    351000   7464.8873      771005.31      5880.7351     -66.738978      481.49129      414.75232      3244.7014    
    352000   7080.963       803660.19      5880.7351     -39.442382      456.72787      417.28548      3367.0933    
    353000   7652.2359      761380.19      5880.7351     -74.097328      493.57543      419.4781       3214.0986    
    354000   7559.5315      771166.58      5880.7351     -67.117312      487.59592      420.47861      3251.0197    
    355000   7214.1337      796043.5       5880.7351     -42.921407      465.31748      422.39608      3344.247     
    356000   7309.7045      791871.77      5880.7351     -49.167172      471.48188      422.31471      3328.8535    
    357000   7336.8509      792427.18      5880.7351     -48.479729      473.23284      424.75312      3333.3305    
    358000   7411.2081      785344.51      5880.7351     -53.032734      478.02894      424.99621      3307.5769    
    359000   7098.0775      807862.47      5880.7351     -32.854104      457.83177      424.97766      3390.2098    
    360000   7183.37        810295.92      5880.7351     -34.639908      463.3332       428.6933       3402.8573    
    361000   7423.6377      793235.73      5880.7351     -49.170842      478.83066      429.65982      3341.205     
    362000   7332.1804      799661.82      5880.7351     -43.150382      472.93159      429.78121      3364.9131    
    363000   7692.2978      777209.4       5880.7351     -63.214418      496.15946      432.94504      3285.6661    
    364000   7656.9795      777853.42      5880.7351     -61.97111       493.8814       431.91029      3286.9952    
    365000   7522.6618      792045.22      5880.7351     -50.569746      485.21779      434.64805      3341.8235    
    366000   7670.4476      782630.6       5880.7351     -58.751018      494.7501       435.99908      3308.6185    
    367000   7166.6036      817574.36      5880.7351     -25.899221      462.25175      436.35253      3437.2318    
    368000   7321.8781      809496.24      5880.7351     -34.371609      472.26709      437.89548      3409.1243    
    369000   7560.4057      794293.18      5880.7351     -47.336011      487.65231      440.3163       3355.7428    
    370000   7521.7137      802583.51      5880.7351     -43.1375        485.15665      442.01915      3387.875     
    371000   7848.5471      780858.02      5880.7351     -64.485153      506.23766      441.75251      3307.8657    
    372000   7671.2456      798251.26      5880.7351     -49.924318      494.80158      444.87726      3374.8318    
    373000   7311.8951      821031.27      5880.7351     -26.491056      471.62317      445.13212      3458.6999    
    374000   7438.9905      811193.88      5880.7351     -34.307882      479.82093      445.51305      3422.973     
    375000   7712.4713      798001.37      5880.7351     -49.264789      497.46066      448.19587      3377.2332    
    376000   7167.4093      835244.24      5880.7351     -12.709277      462.30372      449.59445      3515.3304    
    377000   7884.1568      787748         5880.7351     -57.990958      508.53452      450.54356      3341.9462    
    378000   7450.798       821075.43      5880.7351     -28.583615      480.58252      451.99891      3465.7287    
    379000   7741.5111      798552.92      5880.7351     -45.980837      499.33375      453.35292      3384.4146    
    380000   7786.9898      802091.47      5880.7351     -47.5728        502.26717      454.69437      3398.7442    
    381000   7514.1554      821280.89      5880.7351     -28.344284      484.66913      456.32484      3470.8088    
    382000   7813.08        799321.19      5880.7351     -46.740369      503.95001      457.20964      3391.0913    
    383000   7603.1438      818814.65      5880.7351     -30.571677      490.40895      459.83728      3465.269     
    384000   7497.5758      828411.95      5880.7351     -22.749         483.59973      460.85073      3501.509     
    385000   7655.999       817329.18      5880.7351     -31.647828      493.81815      462.17032      3462.1497    
    386000   7413.6864      835413.55      5880.7351     -15.579481      478.1888       462.60932      3528.9667    
    387000   7754.7078      816516.16      5880.7351     -35.816775      500.18495      464.36818      3461.3634    
    388000   7760.4284      815338.38      5880.7351     -34.843286      500.55393      465.71065      3458.3828    
    389000   7704.1318      820108.9       5880.7351     -30.256635      496.92276      466.66612      3476.8483    
    390000   7825.3622      816341.83      5880.7351     -36.794025      504.74222      467.94819      3464.3035    
    391000   7638.7963      830753.44      5880.7351     -23.04122       492.70857      469.66735      3518.92      
    392000   7286.8466      859874.56      5880.7351      2.7713291      470.00753      472.77886      3628.9196    
    393000   7883.7122      814272.97      5880.7351     -36.142504      508.50584      472.36334      3461.125     
    394000   7983.8181      810302.84      5880.7351     -41.078336      514.96275      473.88442      3448.0738    
    395000   7582.9811      839763.9       5880.7351     -14.49596       489.10844      474.61248      3556.9377    
    396000   8274.7676      791670.78      5880.7351     -58.139115      533.72924      475.59012      3381.3912    
    397000   8011.7079      810725.65      5880.7351     -38.452526      516.76167      478.30914      3454.0505    
    398000   7981.3953      817775.06      5880.7351     -35.053761      514.80648      479.75272      3481.3687    
    399000   7800.9617      829862.25      5880.7351     -24.665717      503.16837      478.50265      3524.4842    
    400000   7788.4307      834677.18      5880.7351     -20.695279      502.36011      481.66483      3545.3194    
    401000   8046.9337      816558.34      5880.7351     -36.893474      519.03376      482.14029      3479.2903    
    402000   7654.3246      848882.78      5880.7351     -9.0487401      493.71015      484.66141      3600.4572    
    403000   7878.8116      834640.4       5880.7351     -22.472158      508.18975      485.71759      3549.2372    
    404000   7719.1315      848361.12      5880.7351     -10.58313       497.89025      487.30712      3601.1882    
    405000   7887.6998      834476.65      5880.7351     -20.095878      508.76304      488.66717      3551.5857    
    406000   8193.2732      812022.95      5880.7351     -39.021365      528.47278      489.45141      3469.9544    
    407000   8102.3996      825758.99      5880.7351     -32.115986      522.61135      490.49537      3521.416     
    408000   7931.3333      837852.55      5880.7351     -19.1805        511.57744      492.39694      3567.7066    
    409000   8280.8086      817636.12      5880.7351     -37.501875      534.11888      496.617        3497.723     
    410000   7488.8611      873515.92      5880.7351      12.105746      483.03762      495.14337      3701.3543    
    411000   7766.5226      853503.18      5880.7351     -4.8846484      500.94702      496.06237      3628.8172    
    412000   8050.2448      834754.62      5880.7351     -23.251606      519.24733      495.99572      3559.9346    
    413000   8204.3681      827357.31      5880.7351     -29.239676      529.18841      499.94873      3536.736     
    414000   8230.6596      829571.83      5880.7351     -29.446932      530.88423      501.4373       3546.3529    
    415000   8110.2681      836750.4       5880.7351     -22.163076      523.11888      500.9558       3572.2201    
    416000   8280.7051      827302.45      5880.7351     -30.111324      534.11221      504.00088      3540.5868    
    417000   8075.1152      839481.58      5880.7351     -17.399675      520.85149      503.45181      3584.7408    
    418000   8270.3444      829812.31      5880.7351     -26.918282      533.44393      506.52565      3552.3239    
    419000   8093.8807      844505.9       5880.7351     -16.1299        522.06188      505.93198      3605.6626    
    420000   8393.8051      827659.5       5880.7351     -32.062678      541.40725      509.34457      3547.241     
    421000   7922.5174      861605.85      5880.7351     -0.60738374     511.00881      510.40143      3672.8968    
    422000   8064.5558      853987.63      5880.7351     -9.5747091      520.1704       510.59569      3645.1286    
    423000   8331.7474      836386.35      5880.7351     -23.159551      537.40447      514.24492      3584.173     
    424000   8464.9981      827466.82      5880.7351     -33.057333      545.99925      512.94192      3550.1312    
    425000   8396.0396      832962.26      5880.7351     -25.589565      541.55137      515.96181      3573.3219    
    426000   8275.6675      848059.76      5880.7351     -18.043135      533.78728      515.74414      3628.5191    
    427000   7912.8254      870861.42      5880.7351      6.6690413      510.38366      517.05271      3713.5203    
    428000   8383.4071      838607.05      5880.7351     -21.250442      540.73657      519.48613      3597.5652    
    429000   8348.3755      844852.91      5880.7351     -18.535339      538.477        519.94166      3620.9459    
    430000   8490.1571      836323.82      5880.7351     -24.835426      547.62203      522.78661      3592.4852    
    431000   8324.7981      847918.78      5880.7351     -14.24473       536.95624      522.71151      3634.969     
    432000   8656.2738      825629.8       5880.7351     -33.570233      558.33669      524.76646      3555.213     
    433000   8482.1793      842455.92      5880.7351     -19.650824      547.10746      527.45663      3619.6628    
    434000   8247.5035      857707.78      5880.7351     -5.7604231      531.97068      526.21025      3674.3979    
    435000   8358.1067      851758.13      5880.7351     -11.83291       539.10467      527.27176      3653.6214    
    436000   8217.2586      863607.65      5880.7351     -1.0743804      530.01985      528.94547      3698.7884    
    437000   8271.1655      863192.93      5880.7351     -4.0435721      533.4969       529.45332      3697.774     
    438000   8384.7774      854041.78      5880.7351     -10.492172      540.82495      530.33278      3665.0645    
    439000   8254.5155      867028.78      5880.7351      0.23665451     532.42296      532.65961      3715.0597    
    440000   8417.9249      857150.33      5880.7351     -7.662488       542.96299      535.30051      3681.4421    
    441000   8263.0857      869955.11      5880.7351      2.6313948      532.97574      535.60714      3728.7482    
    442000   8452.4738      857676.13      5880.7351     -7.5383784      545.19143      537.65305      3685.7245    
    443000   8668.5651      845691.71      5880.7351     -20.719558      559.12949      538.40993      3642.493     
    444000   8633.0551      848536.05      5880.7351     -18.129622      556.83906      538.70944      3653.2326    
    445000   8327.3143      870200.73      5880.7351      2.2069257      537.11853      539.32546      3733.3681    
    446000   8591.4915      854074.88      5880.7351     -11.881389      554.15818      542.27679      3677.13      
    447000   8127.4627      890001.88      5880.7351      18.976284      524.22794      543.20423      3809.9263    
    448000   8521.2221      861969.3       5880.7351     -5.372812       549.62575      544.25293      3708.0823    
    449000   8787.7188      847891.84      5880.7351     -19.831195      566.815        546.9838       3659.1424    
    450000   8426.7643      871928.19      5880.7351      3.4319204      543.53314      546.96506      3747.3482    
    451000   8455.6404      874129.14      5880.7351      2.094299       545.39567      547.48997      3755.9517    
    452000   8402.6039      877066.18      5880.7351      7.2984779      541.97478      549.27326      3768.5153    
    453000   8638.0627      864267.66      5880.7351     -5.6134756      557.16206      551.54859      3723.8141    
    454000   8572.0076      875235.57      5880.7351      0.85097628     552.90146      553.75243      3766.2753    
    455000   7929.9586      919613.15      5880.7351      41.898717      511.48877      553.38749      3928.7967    
    456000   8802.7699      856033.48      5880.7351     -13.235879      567.78581      554.54993      3696.5921    
    457000   8181.8255      900518.19      5880.7351      27.123174      527.73439      554.85756      3860.1794    
    458000   8908.7836      851614.82      5880.7351     -18.145074      574.62378      556.4787       3682.3023    
    459000   8757.4628      862885.83      5880.7351     -6.9868619      564.86347      557.8766       3725.0701    
    460000   8232.3087      900184.54      5880.7351      28.019962      530.9906       559.01056      3863.1077    
    461000   8460.117       886392.43      5880.7351      14.430865      545.68442      560.11529      3813.589     
    462000   8579.8629      881585.82      5880.7351      7.3194024      553.40813      560.72753      3796.5587    
    463000   8559.3249      885597.08      5880.7351      11.086992      552.08341      563.1704       3813.7248    
    464000   8936.8678      857612.01      5880.7351     -12.503791      576.43524      563.93144      3711.7676    
    465000   8797.7527      870619.23      5880.7351     -2.1889931      567.46219      565.2732       3760.8519    
    466000   8790.0326      871640.81      5880.7351     -0.37822412     566.96424      566.58602      3765.9144    
    467000   8974.6378      858441.92      5880.7351     -11.771616      578.87143      567.09981      3717.9821    
    468000   8701.3276      881336.57      5880.7351      7.6343849      561.2427       568.87708      3803.7934    
    469000   8540.0023      893632.54      5880.7351      19.187458      550.83708      570.02454      3850.0728    
    470000   8259.2534      915652.59      5880.7351      38.628328      532.72856      571.35688      3932.229     
    471000   8795.3472      882089.56      5880.7351      4.9193663      567.30704      572.22641      3809.9065    
    472000   9044.4401      864419.87      5880.7351     -10.137042      583.37374      573.23669      3746.0608    
    473000   8530.2221      903943.17      5880.7351      25.147263      550.20625      575.35352      3893.2466    
    474000   8548.0115      901906.12      5880.7351      23.347077      551.35369      574.70077      3885.1169    
    475000   9061.0243      866257.31      5880.7351     -7.0388411      584.44343      577.40459      3756.973     
    476000   8573.5593      900655.2       5880.7351      22.725588      553.00154      575.72713      3881.5518    
    477000   8706.3288      893995.32      5880.7351      17.37348       561.56528      578.93876      3860.3186    
    478000   8872.8564      885715.83      5880.7351      8.7450432      572.30644      581.05149      3832.0417    
    479000   8812.1926      891671.21      5880.7351      14.010962      568.39358      582.40454      3855.2538    
    480000   8763.6274      891943.43      5880.7351      16.893851      565.26108      582.15494      3856.0034    
    481000   9031.2244      876064.63      5880.7351      2.071461       582.52131      584.59277      3800.1586    
    482000   9259.3018      861725.96      5880.7351     -12.062859      597.23249      585.16963      3748.1059    
    483000   9177.7215      864847.26      5880.7351     -8.3489733      591.97049      583.62152      3758.0144    
    484000   9221.8437      867059.15      5880.7351     -7.6477503      594.81641      587.16866      3769.6802    
    485000   9052.3871      881937.64      5880.7351      3.2712335      583.88632      587.15755      3824.2801    
    486000   9068.6289      882824.11      5880.7351      6.0022011      584.93393      590.93613      3831.3124    
    487000   9231.4683      871527.7       5880.7351     -6.3232801      595.4372       589.11392      3788.0271    
    488000   9021.9448      891970.46      5880.7351      9.8804046      581.92277      591.80317      3865.7508    
    489000   9239.2571      874190.12      5880.7351     -3.5302339      595.93959      592.40936      3801.0949    
    490000   9117.2533      883331.22      5880.7351      5.0685285      588.07025      593.13877      3835.3764    
    491000   9154.6893      879983.77      5880.7351      2.0533089      590.48489      592.5382       3822.4891    
    492000   8769.4811      910952.08      5880.7351      29.891041      565.63866      595.5297       3939.1488    
    493000   8909.3958      898960.73      5880.7351      20.525403      574.66327      595.18867      3894.7939    
    494000   9023.8002      895213.8       5880.7351      16.338848      582.04244      598.38129      3884.2335    
    495000   8980.5301      898155.85      5880.7351      18.830043      579.25149      598.08153      3894.7325    
    496000   9192.9456      887596.53      5880.7351      7.7922558      592.95246      600.74471      3858.638     
    497000   9276.5019      882101.64      5880.7351      3.2723345      598.34191      601.61424      3839.3387    
    498000   8966.9751      905014.26      5880.7351      23.769944      578.37718      602.14712      3923.9716    
    499000   8946.1597      908587.03      5880.7351      26.286115      577.03456      603.32068      3938.2589    
    500000   9329.5346      878737.24      5880.7351      0.72155581     601.76256      602.48411      3827.8597    
    501000   9038.6509      902701.07      5880.7351      20.260675      583.00032      603.261        3916.595     
    502000   9299.2655      885456.63      5880.7351      5.8876829      599.81018      605.69786      3855.7367    
    503000   9305.9214      888846.29      5880.7351      8.1145689      600.23949      608.35406      3870.8346    
    504000   9159.7807      898240.01      5880.7351      16.279807      590.8133       607.0931       3904.053     
    505000   9425.6316      881105.81      5880.7351      1.9692292      607.9609       609.93013      3843.9994    
    506000   9387.2262      883491.29      5880.7351      3.9739126      605.48371      609.45763      3852.2828    
    507000   9010.041       910530.6       5880.7351      30.07062       581.15496      611.22558      3953.2976    
    508000   9421.9819      882869.96      5880.7351      2.9158053      607.72549      610.64129      3851.1859    
    509000   9170.6905      904338.69      5880.7351      21.278595      591.51699      612.79558      3932.1404    
    510000   9394.477       889751.56      5880.7351      6.6315547      605.9514       612.58295      3878.3862    
    511000   9011.7192      918664.34      5880.7351      33.761693      581.26321      615.0249       3986.9516    
    512000   9238.5245      902918.26      5880.7351      20.162989      595.89234      616.05533      3930.1865    
    513000   9333.4856      898829.24      5880.7351      14.500749      602.01741      616.51816      3915.6407    
    514000   9675.5924      872707.78      5880.7351     -7.883393       624.08357      616.20018      3819.4448    
    515000   9493.2309      890775.33      5880.7351      7.6229683      612.32111      619.94407      3889.505     
    516000   9342.2571      897148.32      5880.7351      16.47853       602.58317      619.0617       3912.0145    
    517000   9139.4833      915561.82      5880.7351      28.533961      589.5041       618.03806      3978.577     
    518000   8972.5483      927578.89      5880.7351      41.636086      578.73665      620.37274      4025.0199    
    519000   9105.3451      921593.66      5880.7351      35.251231      587.30215      622.55339      4005.232     
    520000   9218.0131      914833.98      5880.7351      27.412429      594.56933      621.98176      3979.8492    
    521000   9228.447       915226.22      5880.7351      28.246422      595.24233      623.48875      3982.7959    
    522000   9332.1904      908741.32      5880.7351      23.307468      601.93386      625.24133      3960.7459    
    523000   9093.2375      925280.9       5880.7351      38.777362      586.52121      625.29857      4021.5111    
    524000   9234.6106      917284.27      5880.7351      32.023086      595.63989      627.66297      3994.5241    
    525000   9486.7387      900765.57      5880.7351      15.488896      611.90235      627.39125      3933.6211    
    526000   9134.2864      927570.44      5880.7351      39.183947      589.16889      628.35284      4032.969     
    527000   9066.6513      935006.51      5880.7351      45.095995      584.80638      629.90237      4061.8124    
    528000   9253.9271      918429.9       5880.7351      31.831313      596.88581      628.71713      3999.7833    
    529000   9361.4517      914163.88      5880.7351      26.626549      603.82124      630.44779      3985.8556    
    530000   9225.5001      926673.44      5880.7351      37.479878      595.05225      632.53213      4033.8559    
    531000   9408.9826      913782.7       5880.7351      25.215593      606.88702      632.10261      3986.1114    
    532000   9631.0474      897972.31      5880.7351      10.873053      621.21038      632.08344      3928.0607    
    533000   9668.1787      896694.73      5880.7351      9.3178236      623.60538      632.9232       3924.2111    
    534000   9052.3894      943232.47      5880.7351      51.536026      583.88647      635.4225       4097.5256    
    535000   9686.3582      895486.53      5880.7351      10.457449      624.77797      635.23542      3922.0887    
    536000   9564.196       907649.02      5880.7351      19.815023      616.89841      636.71343      3968.2087    
    537000   9289.1091      931027.42      5880.7351      40.715314      599.15508      639.8704       4057.1753    
    538000   9336.9537      925896.14      5880.7351      36.532062      602.2411       638.77316      4037.2439    
    539000   9267.2682      930963.57      5880.7351      39.50475       597.74633      637.25108      4054.3217    
    540000   9404.3684      920856.84      5880.7351      31.776138      606.5894       638.36554      4018.3397    
    541000   8954.2243      954672.71      5880.7351      63.273989      577.55474      640.82873      4144.9229    
    542000   9406.3576      924025.14      5880.7351      35.301383      606.7177       642.01909      4033.6224    
    543000   9217.547       941715.72      5880.7351      48.84805       594.53927      643.38732      4099.9233    
    544000   9641.673       906965.37      5880.7351      19.454518      621.89574      641.35026      3970.3363    
    545000   9217.3058      939913.67      5880.7351      48.521693      594.52371      643.0454       4092.967     
    546000   9391.198       929015.64      5880.7351      38.014981      605.7399       643.75488      4053.6756    
    547000   9751.0796      902590.09      5880.7351      15.331017      628.95255      644.28357      3957.2102    
    548000   9555.529       916552.1       5880.7351      29.379085      616.33939      645.71847      4009.8922    
    549000   9632.5841      915558.01      5880.7351      23.843639      621.3095       645.15314      4005.6781    
    550000   9419.6939      930581.09      5880.7351      40.069614      607.57791      647.64752      4063.3142    
    551000   9901.9535      900478.58      5880.7351      9.5142477      638.68404      648.19829      3953.3747    
    552000   9797.7451      905608.65      5880.7351      15.359744      631.96252      647.32226      3971.3285    
    553000   9706.4337      914073.79      5880.7351      23.466028      626.07286      649.53889      4004.6161    
    554000   9404.4742      936094.69      5880.7351      43.371683      606.59622      649.96791      4085.8721    
    555000   9410.9263      936995.98      5880.7351      45.318085      607.01239      652.33048      4091.5428    
    556000   9713.7958      918812.05      5880.7351      25.070617      626.54772      651.61834      4024.0872    
    557000   9334.0624      944369.48      5880.7351      49.981708      602.05461      652.03632      4118.3128    
    558000   9205.3721      952008.65      5880.7351      58.224317      593.75398      651.9783       4146.2941    
    559000   9797.8424      911858.53      5880.7351      21.424165      631.96879      653.39296      4000.3391    
    560000   9697.2009      924732.77      5880.7351      27.76182       625.47733      653.23915      4047.4398    
    561000   9446.6632      936788.91      5880.7351      44.993354      609.31745      654.31081      4092.7631    
    562000   9198.058       958839.66      5880.7351      63.113895      593.28221      656.39611      4175.7849    
    563000   9869.9993      913718.92      5880.7351      21.115236      636.62297      657.73821      4011.5129    
    564000   9256.4454      954918.14      5880.7351      60.542667      597.04824      657.59091      4162.5859    
    565000   9276.2511      960400.29      5880.7351      59.177943      598.32573      657.50367      4182.6208    
    566000   9536.3817      934169.39      5880.7351      42.936722      615.10437      658.04109      4086.8785    
    567000   9349.9883      950964.66      5880.7351      56.132246      603.08184      659.21409      4149.698     
    568000   9803.1003      919373.51      5880.7351      26.511334      632.30793      658.81926      4033.3489    
    569000   9523.3382      942019.88      5880.7351      47.155356      614.26305      661.4184       4119.0708    
    570000   9935.535       910257.43      5880.7351      19.203524      640.85008      660.0536       4001.123     
    571000   9642.2574      930586.79      5880.7351      38.617245      621.93344      660.55068      4076.2383    
    572000   9412.1459      953578.38      5880.7351      54.448983      607.09106      661.54004      4161.6175    
    573000   9296.8933      958403.33      5880.7351      62.147454      599.65717      661.80463      4179.5919    
    574000   9649.2402      934937.49      5880.7351      39.612918      622.38383      661.99675      4093.6535    
    575000   9431.0917      953653.66      5880.7351      55.750789      608.31308      664.06386      4164.4177    
    576000   9825.5876      922161.36      5880.7351      29.496896      633.75839      663.25528      4048.0177    
    577000   9463.4686      946248.85      5880.7351      52.861206      610.40141      663.26262      4136.4373    
    578000   9682.4414      936703.31      5880.7351      40.255916      624.52534      664.78125      4102.9193    
    579000   9436.101       950443.34      5880.7351      56.880311      608.63618      665.51649      4154.0869    
    580000   9342.1437      958664.49      5880.7351      63.691201      602.57586      666.26706      4185.0129    
    581000   9781.7439      930113.04      5880.7351      35.499718      630.93042      666.43014      4080.3789    
    582000   9525.3854      949945.03      5880.7351      52.590235      614.39509      666.98533      4153.7267    
    583000   9505.7456      950777.95      5880.7351      52.824608      613.12831      665.95292      4155.7515    
    584000   9679.0993      937638.28      5880.7351      43.890834      624.30977      668.2006       4109.7705    
    585000   9742.2794      934101.69      5880.7351      38.775411      628.38493      667.16034      4095.7493    
    586000   9858.7688      928288.61      5880.7351      31.557569      635.8986       667.45617      4074.7084    
    587000   9753.0351      938031.14      5880.7351      39.911163      629.07869      668.98985      4112.0017    
    588000   9677.7608      936647.23      5880.7351      43.914027      624.22344      668.13746      4106.0697    
    589000   10172.471      906441.83      5880.7351      13.886618      656.13262      670.01924      3997.0836    
    590000   10011.533      917856.89      5880.7351      24.103654      645.75203      669.85569      4038.8186    
    591000   9821.1554      931878.61      5880.7351      36.526388      633.4725       669.99889      4090.4281    
    592000   9547.6917      955155.24      5880.7351      55.937794      615.83387      671.77167      4177.6369    
    593000   10011.055      918955.9       5880.7351      24.171497      645.7212       669.8927       4042.8895    
    594000   9649.9499      946038.13      5880.7351      49.360041      622.42961      671.78965      4144.1909    
    595000   9614.8398      948414.87      5880.7351      49.901791      620.16498      670.06677      4151.1917    
    596000   9533.1643      955724.93      5880.7351      57.676754      614.89684      672.5736       4180.5299    
    597000   9706.116       946014.82      5880.7351      46.754899      626.05237      672.80727      4145.1229    
    598000   9420.0499      963238.69      5880.7351      65.024206      607.60087      672.62508      4208.1604    
    599000   9676.7181      949752.17      5880.7351      50.069385      624.15618      674.22556      4160.2591    
    600000   9844.9829      933478.84      5880.7351      37.607594      635.0094       672.61699      4098.9198    
    601000   9870.8898      932079.96      5880.7351      37.345539      636.68041      674.02595      4095.1942    
    602000   9740.1801      941874.44      5880.7351      45.343979      628.24953      673.59351      4130.712     
    603000   9943.1233      930217.05      5880.7351      33.728046      641.33953      675.06758      4089.3981    
    604000   9308.4082      974686.58      5880.7351      75.096589      600.39989      675.49648      4253.0509    
    605000   9525.532       958711.27      5880.7351      60.705597      614.40455      675.11015      4194.0277    
    606000   9983.4558      929559.95      5880.7351      32.958907      643.94101      676.89992      4088.8186    
    607000   9431.8355      966096.48      5880.7351      65.503593      608.36105      673.86465      4219.8894    
    608000   10214.744      913539.06      5880.7351      17.939999      658.8593       676.7993       4029.9138    
    609000   9785.6481      937771.53      5880.7351      43.659161      631.18225      674.84141      4116.9004    
    610000   9814.5369      940735.19      5880.7351      42.534325      633.0456       675.57993      4128.5169    
    611000   9481.6389      964351.56      5880.7351      65.817796      611.57341      677.39121      4217.0113    
    612000   9656.263       952108.05      5880.7351      53.106589      622.83681      675.94339      4170.6241    
    613000   9732.9246      945997.66      5880.7351      48.8394        627.78154      676.62094      4148.8736    
    614000   9547.8985      958093.99      5880.7351      60.706158      615.84721      676.55337      4193.2053    
    615000   10122.146      919932.58      5880.7351      24.79989       652.88661      677.6865       4054.2682    
    616000   10135.115      917406.75      5880.7351      24.252937      653.72312      677.97606      4045.2868    
    617000   9284.3583      978428.8       5880.7351      77.520723      598.84865      676.36937      4267.6595    
    618000   9674.2913      951481.06      5880.7351      54.621085      623.99965      678.62073      4171.0001    
    619000   9836.496       941034.77      5880.7351      43.071088      634.46198      677.53307      4131.5696    
    620000   9645.7521      956028.78      5880.7351      55.610575      622.15885      677.76942      4186.841     
    621000   9539.3414      963504.78      5880.7351      62.537525      615.29527      677.8328       4214.3448    
    622000   9513.3954      960241.73      5880.7351      63.496571      613.62173      677.11831      4201.6534    
    623000   9755.3913      948477.38      5880.7351      47.625638      629.23066      676.8563       4158.2107    
    624000   9783.6186      943292.97      5880.7351      46.074204      631.05135      677.12555      4139.4508    
    625000   9627.4654      954990.91      5880.7351      57.618705      620.97934      678.59805      4183.8602    
    626000   9724.3744      950594.29      5880.7351      51.196729      627.23005      678.42678      4167.5512    
    627000   9558.0072      958621.53      5880.7351      62.652815      616.49923      679.15204      4197.7402    
    628000   9853.8034      939500.31      5880.7351      42.50095       635.57832      678.07927      4126.4837    
    629000   9575.4925      956823.98      5880.7351      60.083919      617.62704      677.71096      4189.7013    
    630000   9591.1455      955884.7       5880.7351      59.522047      618.63668      678.15872      4186.7015    
    631000   9500.0649      966976.14      5880.7351      65.386879      612.76191      678.14879      4227.4023    
    632000   9470.6481      965194.49      5880.7351      65.589859      610.86449      676.45435      4219.1684    
    633000   10062.716      923181.85      5880.7351      26.039841      649.05338      675.09323      4063.6012    
    634000   9973.0562      930612.59      5880.7351      34.359309      643.27023      677.62954      4093.4118    
    635000   9768.8158      943026.81      5880.7351      47.402541      630.09656      677.4991       4138.8474    
    636000   9651.7574      951060.38      5880.7351      54.236318      622.54619      676.78251      4167.6177    
    637000   9971.6878      932582.17      5880.7351      35.394712      643.18196      678.57668      4101.5883    
    638000   9607.0167      957573.88      5880.7351      58.148155      619.66038      677.80854      4192.5513    
    639000   9687.1584      947953.4       5880.7351      50.683847      624.82959      675.51344      4154.9446    
    640000   9565.2545      960277.09      5880.7351      59.469847      616.96669      676.43653      4201.1014    
    641000   9622.2606      953031.4       5880.7351      55.478649      620.64363      676.12227      4174.1921    
    642000   9637.9982      954487.54      5880.7351      56.097891      621.65871      677.75661      4181.1711    
    643000   9702.1476      946708.5       5880.7351      50.052035      625.7964       675.84844      4150.7103    
    644000   9804.7687      942229.18      5880.7351      44.353915      632.41555      676.76946      4135.1901    
    645000   10258.295      905785.26      5880.7351      14.014415      661.66839      675.68281      4000.3372    
    646000   9825.5645      936568.06      5880.7351      41.875717      633.75689      675.63261      4113.2743    
    647000   9677.5083      950620.4       5880.7351      52.213041      624.20715      676.42019      4165.6405    
    648000   10120.66       919557.09      5880.7351      23.342194      652.79078      676.13297      4051.3364    
    649000   9973.2456      925890.71      5880.7351      32.890486      643.28244      676.17293      4074.6237    
    650000   9284.3039      976599.33      5880.7351      76.729471      598.84515      675.57462      4260.1497    
    651000   9503.8115      960312.93      5880.7351      61.981983      613.00356      674.98555      4199.7819    
    652000   9568.9038      957191.3       5880.7351      56.163208      617.20207      673.36528      4186.7039    
    653000   9625.4892      947673.09      5880.7351      51.469844      620.85187      672.32172      4150.724     
    654000   9792.0352      937101.61      5880.7351      42.189864      631.59422      673.78409      4113.3841    
    655000   10003.696      922306.23      5880.7351      28.521947      645.24654      673.76849      4059.0626    
    656000   9598.2599      951899.39      5880.7351      54.166428      619.09556      673.26199      4167.1768    
    657000   9943.3102      927283.27      5880.7351      31.234209      641.35158      672.58579      4076.1479    
    658000   9807.1197      931808         5880.7351      38.244152      632.56719      670.81134      4090.9813    
    659000   9689.8984      941361.01      5880.7351      48.668116      625.00632      673.67443      4128.9085    
    660000   9737.2526      941360.56      5880.7351      44.414725      628.0607       672.47543      4127.7078    
    661000   9347.4325      965158.79      5880.7351      67.705941      602.91699      670.62293      4213.2059    
    662000   9977.9433      924691.53      5880.7351      27.973618      643.58545      671.55907      4065.6083    
    663000   9641.0584      943293.72      5880.7351      48.829131      621.8561       670.68523      4133.0132    
    664000   9294.0015      966815.16      5880.7351      71.164874      599.47064      670.63552      4219.2981    
    665000   9876.9995      925264.62      5880.7351      32.152431      637.07449      669.22692      4065.3797    
    666000   10140.159      905633.93      5880.7351      15.655335      654.04847      669.7038       3993.8028    
    667000   9435.6362      955590.65      5880.7351      60.710088      608.6062       669.31629      4176.7797    
[...]
    841000   8776.1745      863826.43      5880.7351     -6.5584528      566.07038      559.51193      3730.1579    
    842000   8541.92        881238         5880.7351      6.6675683      550.96078      557.62835      3792.1829    
    843000   8358.8559      890773.65      5880.7351      15.498217      539.153        554.65121      3824.206     
    844000   8800.9272      858320.97      5880.7351     -12.020953      567.66696      555.646        3706.0844    
    845000   8491.45        880816.01      5880.7351      7.8472617      547.70542      555.55268      3788.5583    
    846000   8226.7594      895379.37      5880.7351      23.953296      530.63267      554.58596      3841.0459    
    847000   8439.2699      882615.75      5880.7351      10.059982      544.33976      554.39975      3794.0113    
    848000   8442.1911      885870.44      5880.7351      11.621998      544.52819      556.15018      3807.7079    
    849000   8340.6155      888584.36      5880.7351      15.683751      537.97647      553.66022      3815.1793    
    850000   8308.7436      891486.05      5880.7351      18.361087      535.92071      554.2818       3826.4514    
    851000   8154.9266      898500.17      5880.7351      26.26936       525.99939      552.26875      3850.1835    
    852000   8525.2665      874551.24      5880.7351      3.9107766      549.88661      553.79739      3763.8084    
    853000   8644.3212      863440.04      5880.7351     -4.2695836      557.56574      553.29615      3722.5239    
    854000   8725.6218      859497.27      5880.7351     -10.147754      562.80969      552.66194      3707.4179    
    855000   8115.7082      898706.49      5880.7351      27.75578       523.46977      551.22555      3849.8976    
    856000   8191.5454      895028.24      5880.7351      23.205688      528.36134      551.56702      3836.7382    
    857000   8511.7338      873040.21      5880.7351      2.4991109      549.01375      551.51286      3755.9777    
    858000   8617.3216      862437.97      5880.7351     -5.4665879      555.82425      550.35766      3715.9073    
    859000   8592.3839      862770.74      5880.7351     -3.8576958      554.21574      550.35804      3717.1291    
    860000   8741.4598      854955.84      5880.7351     -12.927961      563.83126      550.9033       3688.99      
    861000   8490.8291      875661.4       5880.7351      3.3117681      547.66537      550.97714      3765.063     
    862000   8487.8128      871693.23      5880.7351      2.4687002      547.47082      549.93952      3749.4603    
    863000   8656.2456      860781.08      5880.7351     -9.0901537      558.33487      549.24472      3708.7128    
    864000   8256.6423      888299.72      5880.7351      17.570638      532.56013      550.13077      3810.6051    
    865000   8555.9933      866153.25      5880.7351     -3.1028514      551.86852      548.76567      3727.9521    
    866000   8231.6613      887172.78      5880.7351      17.052442      530.94884      548.00128      3804.3392    
    867000   8514.5946      868772.8       5880.7351     -1.544054       549.19827      547.65421      3736.4557    
    868000   8454.3953      873408.19      5880.7351      3.9316276      545.31536      549.24699      3755.0625    
    869000   8524.0639      868535.06      5880.7351     -0.41577114     549.80904      549.39327      3737.3221    
    870000   8321.2213      878791.03      5880.7351      11.005461      536.72553      547.73099      3773.304     
    871000   8849.2237      842887.07      5880.7351     -23.506355      570.78212      547.27576      3641.0645    
    872000   8288.7514      881339.59      5880.7351      11.904728      534.6312       546.53592      3781.4633    
    873000   8395.4973      875637.25      5880.7351      6.5869514      541.51639      548.10334      3762.1005    
    874000   8571.3454      860803.69      5880.7351     -6.9659603      552.85874      545.89278      3705.4438    
    875000   8378.0659      878236.07      5880.7351      5.5453617      540.39206      545.93742      3769.4735    
    876000   8753.7234      846834.42      5880.7351     -19.270406      564.62227      545.35187      3653.6292    
    877000   8610.4791      860187.75      5880.7351     -8.8618709      555.3829       546.52103      3703.8113    
    878000   8390.8466      873104.43      5880.7351      4.1878491      541.21642      545.40427      3750.1048    
    879000   8555.3108      862726.15      5880.7351     -5.5946414      551.8245       546.22986      3712.8373    
    880000   8537.3854      864500.63      5880.7351     -5.5902586      550.66829      545.07803      3718.1986    
    881000   9009.7321      829441.65      5880.7351     -35.813501      581.13504      545.32154      3589.7593    
    882000   7789.684       918485.48      5880.7351      43.904467      502.44094      546.34541      3917.6156    
    883000   8569.6649      858127.28      5880.7351     -7.0652791      552.75035      545.68507      3695.4125    
    884000   8304.6546      876634.93      5880.7351      8.5965661      535.65697      544.25353      3761.9127    
    885000   8174.3974      887656.64      5880.7351      16.853923      527.25527      544.10919      3802.2231    
    886000   8462.3279      868651.03      5880.7351     -1.3633808      545.82702      544.46364      3732.8181    
    887000   8829.2794      841515.31      5880.7351     -25.078702      569.4957       544.41699      3633.1707    
    888000   8361.5398      871946.1       5880.7351      5.6019715      539.32611      544.92808      3745.377     
    889000   8287.8304      881233.22      5880.7351      8.8058674      534.57179      543.37766      3777.9146    
    890000   8305.724       873334.76      5880.7351      7.9618545      535.72594      543.6878       3749.2338    
    891000   8469.6429      864565.68      5880.7351     -3.65608        546.29885      542.64277      3716.0021    
    892000   8566.3714      857201.06      5880.7351     -8.6397946      552.53792      543.89812      3690.2259    
    893000   8239.7783      878963         5880.7351      11.653187      531.4724       543.12558      3769.3298    
    894000   8457.6303      866653.59      5880.7351     -1.2740633      545.52402      544.24996      3725.2729    
    895000   8796.6984      839820.47      5880.7351     -23.438626      567.39419      543.95557      3626.4885    
    896000   8455.122       865879.53      5880.7351     -0.98902831     545.36223      544.37321      3722.555     
    897000   8466.367       862036.24      5880.7351     -2.6533831      546.08755      543.43416      3707.5093    
    898000   8231.3936      879205.7       5880.7351      12.327649      530.93157      543.25922      3770.3543    
    899000   8484.8914      861635         5880.7351     -4.6019572      547.28239      542.68043      3705.2828    
    900000   8572.3074      860788.09      5880.7351     -9.5942656      552.92079      543.32653      3702.8203    
    901000   7935.2093      901532.39      5880.7351      31.341044      511.82745      543.16849      3852.2129    
    902000   8500.8095      860867.5       5880.7351     -4.7088068      548.30912      543.60031      3703.3856    
    903000   8522.221       860224.87      5880.7351     -5.9783771      549.69018      543.7118       3701.1384    
    904000   8505.8365      861967.14      5880.7351     -6.4952578      548.63336      542.13811      3705.9596    
    905000   8455.8077      861319.87      5880.7351     -4.1974447      545.40646      541.20902      3702.6547    
    906000   8298.0573      879706.33      5880.7351      8.7338412      535.23144      543.96528      3772.8979    
    907000   8640.5052      854663.82      5880.7351     -13.954679      557.31961      543.36493      3680.3798    
    908000   8505.6853      861224.88      5880.7351     -6.6948802      548.62361      541.92873      3703.0258    
    909000   8619.5019      851607.56      5880.7351     -14.372279      555.96487      541.59259      3667.3896    
    910000   8511.4818      860725.07      5880.7351     -5.9418983      548.99749      543.05559      3702.3181    
    911000   8238.5802      882256.04      5880.7351      11.850369      531.39512      543.24548      3781.5367    
    912000   8579.9583      852917.6       5880.7351     -10.412457      553.41428      543.00183      3673.6073    
    913000   8478.1908      863234.47      5880.7351     -4.1991462      546.8502       542.65105      3711.1242    
    914000   8486.7963      861017.04      5880.7351     -6.6142088      547.40526      540.79105      3701.1252    
    915000   8548.9179      855622.89      5880.7351     -8.4220818      551.41215      542.99007      3683.5252    
    916000   8461.3828      860695.8       5880.7351     -3.7398577      545.76606      542.0262       3701.1813    
    917000   8336.8608      874404.59      5880.7351      5.2274134      537.73429      542.96171      3752.4344    
    918000   8451.0919      861947.34      5880.7351     -3.0609379      545.10229      542.04135      3705.7902    
    919000   8311.227       871785.65      5880.7351      5.7016128      536.08089      541.7825       3741.6425    
    920000   8492.7771      862668.89      5880.7351     -5.3359101      547.79102      542.45511      3708.8523    
    921000   8329.2532      876290.28      5880.7351      6.4938555      537.2436       543.73745      3760.1315    
    922000   8286.8938      876790.09      5880.7351      7.4733342      534.51138      541.98472      3760.2134    
    923000   8697.2222      850853.57      5880.7351     -17.486061      560.9779       543.49183      3666.5213    
    924000   8318.9845      876693.66      5880.7351      5.9182284      536.58126      542.49949      3760.3742    
    925000   8555.6689      859276.87      5880.7351     -8.1978859      551.84759      543.64971      3697.5967    
    926000   8347.2142      873980.65      5880.7351      2.8456044      538.4021       541.2477       3749.1644    
    927000   8553.2372      859445.8       5880.7351     -9.7895233      551.69075      541.90123      3696.4682    
    928000   8352.3975      870276.34      5880.7351      2.851593       538.73643      541.58802      3735.9082    
    929000   8599.6237      855422.01      5880.7351     -11.224538      554.68271      543.45818      3683.256     
    930000   8423.4399      867891.95      5880.7351     -0.71340069     543.31871      542.60531      3728.1736    
    931000   8286.3983      876547.57      5880.7351      8.4180329      534.47942      542.89745      3760.2359    
    932000   8509.9141      862516.03      5880.7351     -4.8105643      548.89637      544.08581      3709.922     
    933000   8335.6062      873503.79      5880.7351      6.7846312      537.65337      544.438        3750.6044    
    934000   8709.7135      848288.01      5880.7351     -17.607087      561.78359      544.17651      3657.7892    
    935000   8120.2082      892757.68      5880.7351      20.305804      523.76002      544.06583      3820.903     
    936000   8807.3194      842687.15      5880.7351     -21.99302       568.07926      546.08624      3639.1411    
    937000   8366.8415      873906.79      5880.7351      5.5310545      539.66807      545.19913      3752.8447    
    938000   8390.3731      870663.35      5880.7351      4.3018582      541.18588      545.48774      3741.2284    
    939000   8102.3521      893254.13      5880.7351      23.05819       522.60829      545.66648      3824.3258    
    940000   8235.835       883076.24      5880.7351      14.766772      531.21805      545.98482      3787.2865    
    941000   8391.845       873982.52      5880.7351      2.9425248      541.28082      544.22334      3752.1469    
    942000   8709.0869      849933.09      5880.7351     -16.642234      561.74318      545.10095      3664.7519    
    943000   8691.0094      854545.05      5880.7351     -13.790171      560.57716      546.78699      3683.3659    
    944000   8379.6605      875025.58      5880.7351      6.5640911      540.49491      547.059        3758.8111    
    945000   8404.1547      873219.16      5880.7351      3.2140157      542.0748       545.28882      3750.4105    
    946000   8725.1245      850008.99      5880.7351     -16.152431      562.77762      546.62519      3666.5547    
    947000   8217.4007      885492.93      5880.7351      15.536174      530.02902      545.56519      3795.7373    
    948000   8293.0592      881482.41      5880.7351      11.996407      534.90906      546.90547      3782.3571    
    949000   8377.2865      874873.02      5880.7351      6.4320853      540.34178      546.77387      3757.9659    
    950000   8197.9534      887523.66      5880.7351      17.871077      528.77465      546.64573      3804.2716    
    951000   8173.3872      889964.54      5880.7351      19.544343      527.19011      546.73445      3813.3195    
    952000   8557.604       866132.14      5880.7351     -4.0810643      551.97241      547.89135      3727.0003    
    953000   8305.358       888831.14      5880.7351      13.383562      535.70234      549.0859       3811.5108    
    954000   8991.4367      835246.28      5880.7351     -31.835851      579.95497      548.11912      3613.8626    
    955000   8352.9946      878713.84      5880.7351      9.0021591      538.77494      547.77709      3773.0668    
    956000   8775.5068      849508.42      5880.7351     -17.647782      566.02732      548.37954      3666.4717    
    957000   8420.8572      877760.44      5880.7351      5.6909688      543.15213      548.8431       3770.6334    
    958000   8830.834       846467.9       5880.7351     -20.693714      569.59597      548.90225      3655.8343    
    959000   8636.9198      864289.56      5880.7351     -8.2037738      557.08835      548.88457      3721.2304    
    960000   8388.5949      879022.38      5880.7351      8.4744117      541.07119      549.5456       3775.9678    
    961000   8177.6338      898214.54      5880.7351      23.330646      527.46402      550.79467      3847.661     
    962000   8741.7561      850893.63      5880.7351     -13.918064      563.85037      549.93231      3673.1088    
    963000   8445.4525      875470.68      5880.7351      5.8904454      544.73855      550.62899      3764.0148    
    964000   8828.2076      847523.48      5880.7351     -17.466067      569.42656      551.96049      3662.767     
    965000   8583.0735      866588.92      5880.7351     -2.4542411      553.61521      551.16097      3731.9466    
    966000   8695.3614      859616.72      5880.7351     -8.3971998      560.85788      552.46068      3707.655     
    967000   8541.3773      872988.5       5880.7351      1.3908898      550.92577      552.31666      3756.5917    
    968000   8480.2882      874986.5       5880.7351      5.1705483      546.98548      552.15602      3763.7646    
    969000   8712.2288      860973.43      5880.7351     -8.3986543      561.94583      553.54718      3713.7213    
    970000   8335.3152      890565.13      5880.7351      15.969732      537.6346       553.60434      3822.3938    
    971000   8461.6839      879650.81      5880.7351      8.8304943      545.78549      554.61598      3783.3448    
    972000   9122.06        830073.58      5880.7351     -33.778566      588.38028      554.60171      3601.3589    
    973000   8353.2286      886485.87      5880.7351      15.963616      538.79003      554.75365      3808.5703    
    974000   8486.7638      878046.41      5880.7351      7.0807368      547.40316      554.4839       3777.3238    
    975000   8639.0241      867097.77      5880.7351     -1.2913462      557.22407      555.93272      3738.586     
    976000   8317.7186      891322.1       5880.7351      19.386015      536.4996       555.88562      3827.4535    
    977000   8395.2492      884776.46      5880.7351      13.395817      541.50039      554.89621      3802.4385    
    978000   8592.5654      871177.95      5880.7351      2.7353443      554.22745      556.96279      3754.5922    
    979000   8883.4501      853481         5880.7351     -15.487728      572.98975      557.50202      3690.1754    
    980000   8511.1794      879383.83      5880.7351      9.4546435      548.97799      558.43263      3786.1815    
    981000   8662.7125      867855.18      5880.7351     -0.98786418     558.75199      557.76413      3743.1975    
    982000   8697.9589      867787.42      5880.7351     -2.940636       561.02541      558.08478      3743.2694    
    983000   8595.5649      875799.55      5880.7351      3.5391449      554.42092      557.96006      3772.553     
    984000   8203.9216      902369.35      5880.7351      29.111783      529.15961      558.27139      3870.3878    
    985000   8642.7141      873254.83      5880.7351      2.5082047      557.46208      559.97029      3765.2228    
    986000   8604.4149      878016.24      5880.7351      4.8385348      554.99175      559.83028      3782.5594    
    987000   8736.9891      869653.12      5880.7351     -2.6777052      563.54289      560.86519      3752.8978    
    988000   8909.149       853767.98      5880.7351     -13.713234      574.64735      560.93412      3694.6609    
    989000   9117.6789      839714.04      5880.7351     -27.64472       588.0977       560.45298      3642.5952    
    990000   8590.4133      875248.37      5880.7351      7.5993475      554.08864      561.68799      3774.2578    
    991000   8420.0797      892301.06      5880.7351      18.556322      543.10198      561.6583       3836.8194    
    992000   8839.8441      862714.36      5880.7351     -8.4188052      570.17713      561.75832      3728.3225    
    993000   8924.004       859743.16      5880.7351     -12.289861      575.60551      563.31565      3718.9741    
    994000   8583.4748      886134.12      5880.7351      9.8643544      553.6411       563.50545      3816.031     
    995000   8632.8328      881671.61      5880.7351      7.6017533      556.82473      564.42648      3800.5726    
    996000   8717.6077      871732.35      5880.7351      0.20947417     562.29278      562.50225      3762.1666    
    997000   8796.2431      868348.33      5880.7351     -3.3582628      567.36483      564.00656      3751.25      
    998000   8582.5353      884470.21      5880.7351      12.094155      553.5805       565.67466      3812.0929    
    999000   8649.9982      885326.46      5880.7351      9.2785483      557.93191      567.21046      3816.7715    
   1000000   8819.339       868114.07      5880.7351     -2.8844571      568.85453      565.97007      3752.3536    
Loop time of 205.271 on 8 procs for 1000000 steps with 500 atoms

Performance: 420.906 ns/day, 0.057 hours/ns, 4871.601 timesteps/s
34.2% CPU use with 8 MPI tasks x 1 OpenMP threads

MPI task timing breakdown:
Section |  min time  |  avg time  |  max time  |%varavg| %total
---------------------------------------------------------------
Pair    | 9.7925     | 9.8903     | 9.9522     |   1.6 |  4.82
Neigh   | 3.5856     | 3.6069     | 3.6325     |   0.7 |  1.76
Comm    | 130.68     | 138.12     | 144.62     |  35.5 | 67.29
Output  | 1.6327     | 1.6944     | 1.7627     |   3.0 |  0.83
Modify  | 39.908     | 46.3       | 53.718     |  60.9 | 22.56
Other   |            | 5.66       |            |       |  2.76

Nlocal:           62.5 ave          67 max          60 min
Histogram: 2 2 1 0 0 1 0 1 0 1
Nghost:          641.5 ave         655 max         630 min
Histogram: 1 2 0 0 0 2 1 1 0 1
Neighs:        1908.25 ave        2098 max        1787 min
Histogram: 2 0 1 1 1 2 0 0 0 1
FullNghs:       3816.5 ave        4096 max        3591 min
Histogram: 1 1 0 1 2 0 2 0 0 1

Total # of neighbors = 30532
Ave neighs/atom = 61.064
Neighbor list builds = 50000
Dangerous builds not checked





Total wall time: 0:03:25
