LAMMPS (2 Jun 2022)
OMP_NUM_THREADS environment is not set. Defaulting to 1 thread. (src/comm.cpp:98)
  using 1 OpenMP thread(s) per MPI task
units metal
atom_style atomic
lattice fcc 3.61
Lattice spacing in x,y,z = 3.61 3.61 3.61
region box block 0 5 0 5 0 5
create_box 1 box
Created orthogonal box = (0 0 0) to (18.05 18.05 18.05)
  2 by 2 by 2 MPI processor grid
create_atoms 1 box
Created 500 atoms
  using lattice units in orthogonal box = (0 0 0) to (18.05 18.05 18.05)
  create_atoms CPU = 0.000 seconds
mass 1 64
velocity all create 3000 3000

pair_style lj/cut 3.6
pair_coeff 1 1 0.167 2.314 3.6
neighbor 2.0 bin
neigh_modify every 20 delay 0 check no

fix 1 all nvt temp 3000 3000 100

thermo 1000
thermo_style custom step temp press vol pe ke etotal enthalpy
thermo_modify flush yes
compute 1 all orientorder/atom degrees 3 4 6 8
dump 1 all custom 1000 dump.traj id type c_1[2] c_1[3]
run 1000000
Generated 0 of 0 mixed pair_coeff terms from geometric mixing rule
Neighbor list info ...
  update every 20 steps, delay 0 steps, check no
  max neighbors/atom: 2000, page size: 100000
  master list distance cutoff = 5.6
  ghost atom cutoff = 5.6
  binsize = 2.8, bins = 7 7 7
  2 neighbor lists, perpetual/occasional/extra = 1 1 0
  (1) pair lj/cut, perpetual
      attributes: half, newton on
      pair build: half/bin/atomonly/newton
      stencil: half/bin/3d
      bin: standard
  (2) compute orientorder/atom, occasional
      attributes: full, newton on
      pair build: full/bin/atomonly
      stencil: full/bin/3d
      bin: standard
Per MPI rank memory allocation (min/avg/max) = 4.854 | 4.854 | 4.854 Mbytes
   Step          Temp          Press          Volume         PotEng         KinEng         TotEng        Enthalpy   
         0   3000           101697.48      5880.7351     -494.9565       193.50244     -301.45406      71.823131    
      1000   1528.5007      209544.01      5880.7351     -429.85575      98.58954      -331.26621      437.85805    
      2000   1596.1698      205401.54      5880.7351     -433.25303      102.95425     -330.29878      423.62067    
      3000   1549.3548      207979.14      5880.7351     -431.51208      99.934642     -331.57744      431.80301    
      4000   1569.6656      205969.99      5880.7351     -432.52244      101.2447      -331.27774      424.72821    
      5000   1591.8065      204781.65      5880.7351     -434.06275      102.67281     -331.38994      420.25422    
      6000   1666.0493      199219.55      5880.7351     -438.07611      107.46153     -330.61457      400.6141     
      7000   1610.187       203338.54      5880.7351     -435.25166      103.85837     -331.39329      414.954      
      8000   1555.8222      207979.29      5880.7351     -431.14755      100.3518      -330.79575      432.58528    
      9000   1657.3085      199961.56      5880.7351     -437.68103      106.89774     -330.78328      403.16891    
     10000   1634.3215      201905.24      5880.7351     -436.02769      105.41507     -330.61263      410.4738     
     11000   1592.5999      205965.78      5880.7351     -432.77314      102.72399     -330.04915      425.94132    
     12000   1660.0357      200904.73      5880.7351     -437.42282      107.07365     -330.34917      407.06491    
     13000   1561.4412      208915.01      5880.7351     -431.92069      100.71422     -331.20646      435.60909    
     14000   1597.799       205252.92      5880.7351     -434.51634      103.05934     -331.457        421.91695    
     15000   1640.0627      201936.38      5880.7351     -436.33276      105.78538     -330.54738      410.65334    
     16000   1619.9816      204845.09      5880.7351     -433.39789      104.49013     -328.90776      422.96926    
     17000   1663.1128      200418.39      5880.7351     -438.32115      107.27212     -331.04903      404.57995    
     18000   1603.0558      206677.45      5880.7351     -432.19103      103.3984      -328.79263      429.81003    
     19000   1559.2993      209906.99      5880.7351     -430.28633      100.57607     -329.71026      440.74631    
     20000   1601.1536      206078.38      5880.7351     -433.40694      103.27571     -330.13123      426.27256    
     21000   1544.009       211045.96      5880.7351     -429.13322      99.589832     -329.54339      445.09374    
     22000   1654.4071      202670.11      5880.7351     -435.3603       106.7106      -328.6497       415.24413    
     23000   1569.331       210090.54      5880.7351     -429.60416      101.22312     -328.38103      442.74926    
     24000   1615.1018      206866.93      5880.7351     -432.1271       104.17538     -327.95172      431.34641    
     25000   1635.7796      205475.93      5880.7351     -434.01456      105.50911     -328.50545      425.68708    
     26000   1581.419       209626.41      5880.7351     -429.50037      102.00281     -327.49755      441.92914    
     27000   1627.5966      207497.67      5880.7351     -431.97579      104.9813      -326.99449      434.61875    
     28000   1564.7041      212318.99      5880.7351     -428.69173      100.92468     -327.76705      451.5427     
     29000   1617.6666      208903.19      5880.7351     -432.31938      104.34081     -327.97856      438.79359    
     30000   1657.8614      206089.3       5880.7351     -433.79569      106.93341     -326.86228      429.58159    
     31000   1591.2199      211468.39      5880.7351     -429.87932      102.63498     -327.24434      448.9433     
     32000   1552.8895      214214.97      5880.7351     -426.63279      100.16263     -326.47016      459.79871    
     33000   1608.2384      209910.45      5880.7351     -430.69478      103.73268     -326.9621       443.50715    
     34000   1627.3719      209746.71      5880.7351     -430.64139      104.96681     -325.67458      444.1937     
     35000   1703.149       203986.5       5880.7351     -436.19493      109.8545      -326.34043      422.38518    
     36000   1625.4247      211140.49      5880.7351     -429.92932      104.84121     -325.08811      449.89598    
     37000   1683.0905      206018.23      5880.7351     -434.69277      108.56071     -326.13206      430.05095    
     38000   1650.6937      209735.12      5880.7351     -431.05179      106.47109     -324.58071      445.24503    
     39000   1736.8566      202612.91      5880.7351     -436.60536      112.02866     -324.5767       419.1072     
     40000   1712.8928      205730.58      5880.7351     -433.9578       110.48298     -323.47482      431.65236    
     41000   1673.634       208510.92      5880.7351     -431.79003      107.95075     -323.83928      441.49305    
     42000   1600.1124      214406.16      5880.7351     -426.98164      103.20855     -323.77309      463.19752    
     43000   1594.0507      214798.25      5880.7351     -426.38973      102.81756     -323.57217      464.83759    
     44000   1595.2791      216456.98      5880.7351     -426.05519      102.8968      -323.15839      471.33968    
     45000   1659.4595      211388.81      5880.7351     -429.63699      107.03649     -322.60051      453.29503    
     46000   1607.1259      215845.4       5880.7351     -426.22979      103.66092     -322.56887      469.68444    
     47000   1747.3301      205499.95      5880.7351     -434.84754      112.70421     -322.14333      432.13734    
     48000   1665.2193      211118.25      5880.7351     -429.8946       107.40799     -322.4866       452.41587    
     49000   1674.4401      211091.97      5880.7351     -430.40395      108.00274     -322.4012       452.40479    
     50000   1665.8326      212028.61      5880.7351     -428.74545      107.44756     -321.29789      456.94603    
     51000   1729.2185      207347.26      5880.7351     -433.70473      111.536       -322.16873      438.89244    
     52000   1683.0941      211346.38      5880.7351     -429.17956      108.56094     -320.61862      455.12117    
     53000   1698.8139      210218.13      5880.7351     -430.95093      109.57488     -321.37606      450.22256    
     54000   1684.4832      212633.93      5880.7351     -429.99825      108.65053     -321.34772      459.11799    
     55000   1617.3865      217674.1       5880.7351     -424.89744      104.32275     -320.5747       478.39079    
     56000   1724.5375      210222.6       5880.7351     -430.91478      111.23407     -319.68071      451.93431    
     57000   1739.9329      208672.47      5880.7351     -433.3556       112.22709     -321.12852      444.79679    
     58000   1641.9103      216627.3       5880.7351     -426.15416      105.90455     -320.24962      474.87361    
     59000   1669.6145      215275.8       5880.7351     -426.97922      107.69149     -319.28773      470.87487    
     60000   1705.456       212027.58      5880.7351     -429.92736      110.0033      -319.92406      458.31605    
     61000   1712.1179      212522.66      5880.7351     -429.44781      110.433       -319.01481      461.04248    
     62000   1757.4937      208552.85      5880.7351     -432.40074      113.35977     -319.04097      446.44527    
     63000   1659.9009      216292.41      5880.7351     -426.79864      107.06496     -319.73368      474.16036    
     64000   1653.4078      218225.44      5880.7351     -424.36922      106.64614     -317.72308      483.26606    
     65000   1674.2963      216188.05      5880.7351     -426.53967      107.99347     -318.5462       474.9648     
     66000   1666.4412      217861.01      5880.7351     -424.50538      107.48681     -317.01858      482.63296    
     67000   1687.6458      216838.8       5880.7351     -426.38158      108.85453     -317.52705      478.37249    
     68000   1717.121       213741.49      5880.7351     -428.56007      110.7557      -317.80437      466.7266     
     69000   1776.3034      210111.23      5880.7351     -431.72071      114.57301     -317.1477       454.05851    
     70000   1721.123       213547.72      5880.7351     -428.49144      111.01383     -317.47761      466.34214    
     71000   1726.405       213857.61      5880.7351     -428.83952      111.35453     -317.48499      467.47218    
     72000   1770.8638      210132.86      5880.7351     -431.45615      114.22215     -317.234        454.05162    
     73000   1793.4342      209632.4       5880.7351     -432.18966      115.67796     -316.5117       452.937      
     74000   1670.8182      219680.18      5880.7351     -423.86847      107.76913     -316.09934      490.22941    
     75000   1682.2084      219184.6       5880.7351     -425.04946      108.50381     -316.54565      487.96407    
     76000   1738.0814      214410.12      5880.7351     -428.88001      112.10766     -316.77235      470.21282    
     77000   1761.0865      213975.09      5880.7351     -429.02013      113.59151     -315.42862      469.95979    
     78000   1687.828       219783.22      5880.7351     -423.41343      108.86628     -314.54715      492.15978    
     79000   1676.5777      220955.44      5880.7351     -423.03548      108.14062     -314.89486      496.11469    
     80000   1745.6121      216040.45      5880.7351     -427.26639      112.5934      -314.67299      478.29625    
     81000   1751.1344      215875.13      5880.7351     -427.23595      112.94959     -314.28636      478.07608    
     82000   1759.212       215289.23      5880.7351     -428.06894      113.4706      -314.59834      475.61358    
     83000   1747.1944      216830         5880.7351     -427.08764      112.69546     -314.39218      481.47506    
     84000   1761.9884      216576.12      5880.7351     -426.06538      113.64968     -312.4157       482.51967    
     85000   1763.8389      216233.5       5880.7351     -427.67478      113.76904     -313.90574      479.77206    
     86000   1739.7093      218369.45      5880.7351     -424.68849      112.21266     -312.47583      489.04191    
     87000   1733.7406      220249.93      5880.7351     -424.41048      111.82768     -312.5828       495.83718    
     88000   1725.5262      219697.77      5880.7351     -424.46092      111.29784     -313.16307      493.23022    
     89000   1723.377       220811.63      5880.7351     -423.38866      111.15922     -312.22944      498.25225    
     90000   1669.984       225582.57      5880.7351     -420.20753      107.71532     -312.49221      515.50104    
     91000   1793.6442      216263.66      5880.7351     -427.74484      115.69151     -312.05333      481.7352     
     92000   1801.5355      216440.38      5880.7351     -427.30679      116.20051     -311.10628      483.33087    
     93000   1828.2572      214637.54      5880.7351     -429.02522      117.92407     -311.10114      476.71874    
     94000   1837.2779      213147.09      5880.7351     -430.07978      118.50592     -311.57386      470.77538    
     95000   1768.3156      220244.77      5880.7351     -424.056        114.05779     -309.99821      498.40285    
     96000   1710.3716      224930.6       5880.7351     -421.05535      110.32036     -310.73499      514.86524    
     97000   1806.9937      217901.8       5880.7351     -426.71154      116.55256     -310.15898      489.64226    
     98000   1858.2601      213513.04      5880.7351     -429.69824      119.85928     -309.83895      473.85349    
     99000   1753.0466      222350.18      5880.7351     -422.29255      113.07293     -309.21962      506.90925    
    100000   1770.4527      222496.62      5880.7351     -422.41424      114.19564     -308.2186       508.44778    
    101000   1781.7058      221342.63      5880.7351     -423.11738      114.92147     -308.19591      504.23478    
    102000   1806.0721      219772.26      5880.7351     -424.82058      116.49312     -308.32746      498.33924    
    103000   1741.1489      225187.91      5880.7351     -419.94981      112.30552     -307.64429      518.9004     
    104000   1762.0862      222780.14      5880.7351     -422.92662      113.65599     -309.27063      508.43639    
    105000   1731.9996      227119.92      5880.7351     -418.83848      111.71538     -307.1231       526.51295    
    106000   1842.0083      218672.58      5880.7351     -426.03789      118.81103     -307.22686      495.40349    
    107000   1758.2039      226292.68      5880.7351     -420.02582      113.40558     -306.62024      523.97945    
    108000   1811.8039      221075.79      5880.7351     -423.54516      116.86282     -306.68233      504.76894    
    109000   1828.2666      220502.62      5880.7351     -425.34749      117.92468     -307.42281      501.92467    
    110000   1801.2937      223987.92      5880.7351     -421.67078      116.1849      -305.48588      516.65428    
    111000   1812.6871      223247.81      5880.7351     -422.13661      116.91979     -305.21683      514.20678    
    112000   1778.6084      226165.06      5880.7351     -419.78792      114.72169     -305.06623      525.06504    
    113000   1833.4386      221841.4       5880.7351     -423.62153      118.25828     -305.36325      508.89818    
    114000   1819.2301      223582.59      5880.7351     -422.37098      117.34182     -305.02916      515.62323    
    115000   1745.5532      231371.96      5880.7351     -417.25776      112.5896      -304.66816      544.57486    
    116000   1889.0502      218818.57      5880.7351     -426.35565      121.84527     -304.51038      498.65583    
    117000   1911.7623      218339.73      5880.7351     -427.61881      123.31022     -304.30859      497.10008    
    118000   1793.4175      227916.51      5880.7351     -419.47339      115.67688     -303.79651      532.7634     
    119000   1807.0461      226879.79      5880.7351     -420.08266      116.55594     -303.52671      529.22797    
    120000   1773.5733      229592.1       5880.7351     -417.93268      114.39692     -303.53576      539.17434    
    121000   1833.9046      226021.71      5880.7351     -420.74604      118.28834     -302.4577       527.14741    
    122000   1892.4724      222454.25      5880.7351     -423.52788      122.06601     -301.46187      515.04901    
    123000   1919.4904      220693.37      5880.7351     -425.38404      123.80869     -301.57535      508.47226    
    124000   1793.0405      229891.8       5880.7351     -416.80593      115.65257     -301.15336      542.65679    
    125000   1778.9706      232022.42      5880.7351     -416.06549      114.74505     -301.32044      550.31009    
    126000   1912.8831      222153.95      5880.7351     -424.23455      123.38251     -300.85204      514.55659    
    127000   1858.336       226711.83      5880.7351     -420.94361      119.86418     -301.07943      531.05875    
    128000   1821.8632      229543.75      5880.7351     -417.9335       117.51166     -300.42184      542.1108     
    129000   1956.0744      219367.97      5880.7351     -425.9197       126.16839     -299.75132      505.43147    
    130000   1879.0899      226655.69      5880.7351     -421.26908      121.20283     -300.06625      531.86585    
    131000   1841.2929      229916.47      5880.7351     -418.4965       118.76489     -299.73161      544.1691     
    132000   1835.0264      230641.51      5880.7351     -417.29933      118.36069     -298.93864      547.62327    
    133000   1839.803       230445.14      5880.7351     -418.32268      118.66879     -299.65389      546.18727    
    134000   1864.3504      230201.6       5880.7351     -418.15863      120.25211     -297.90651      547.04074    
    135000   1878.0286      228540.77      5880.7351     -419.83347      121.13437     -298.6991       540.15213    
    136000   1930.4314      225433.38      5880.7351     -421.76391      124.51439     -297.24952      530.19614    
    137000   1951.5985      224504.98      5880.7351     -422.88152      125.87969     -297.00184      527.03617    
    138000   1835.7141      233925.36      5880.7351     -415.49938      118.40505     -297.09432      561.52085    
    139000   1914.8589      228006.51      5880.7351     -419.9844       123.50996     -296.47445      540.41582    
    140000   1918.5866      228179.81      5880.7351     -420.25853      123.75039     -296.50814      541.01819    
    141000   1871.2585      232385.23      5880.7351     -416.22723      120.69769     -295.52954      557.43264    
    142000   1830.3809      236131.23      5880.7351     -413.51247      118.06105     -295.45141      571.26035    
    143000   1853.2355      234641.56      5880.7351     -415.21592      119.53519     -295.68073      565.56326    
    144000   1910.4122      230660.17      5880.7351     -417.03987      123.22314     -293.81672      552.81368    
    145000   1910.5932      231180.24      5880.7351     -417.76653      123.23481     -294.53172      554.0076     
    146000   1941.7467      229990.87      5880.7351     -419.42008      125.24424     -294.17585      549.99792    
    147000   1873.2387      235678.01      5880.7351     -414.72458      120.82542     -293.89917      571.14907    
    148000   1932.2129      230868.94      5880.7351     -418.00759      124.6293      -293.37828      554.01841    
    149000   1881.1021      235296.88      5880.7351     -415.01604      121.33262     -293.68343      569.96587    
    150000   1926.9112      233101.66      5880.7351     -416.75807      124.28734     -292.47073      563.12111    
    151000   1904.8161      234093         5880.7351     -415.93238      122.86219     -293.07019      566.16031    
    152000   1961.9382      229469.3       5880.7351     -418.95584      126.54661     -292.40923      549.85013    
    153000   1878.9239      237318.34      5880.7351     -412.98653      121.19212     -291.79441      579.27458    
    154000   2018.9896      226742.16      5880.7351     -421.67682      130.22647     -291.45035      540.79915    
    155000   1824.653       241394.16      5880.7351     -409.51737      117.6916      -291.82577      594.20339    
    156000   1980.5929      231101.87      5880.7351     -418.5424       127.74985     -290.79255      557.45913    
    157000   1998.7248      229600.24      5880.7351     -419.69984      128.91938     -290.78046      551.95952    
    158000   1973.0783      232888.7       5880.7351     -416.84332      127.26515     -289.57817      565.232      
    159000   1938.2921      236175.39      5880.7351     -413.5908       125.02141     -288.56939      578.30448    
    160000   1945.5711      237728.03      5880.7351     -414.19795      125.49092     -288.70703      583.86572    
    161000   1894.5272      241191.75      5880.7351     -410.75182      122.19855     -288.55327      596.73296    
    162000   1910.2901      239438.02      5880.7351     -411.6397       123.21527     -288.42443      590.42478    
    163000   1946.6087      237286.94      5880.7351     -413.74497      125.55784     -288.18713      582.76664    
    164000   1904.5804      241191.06      5880.7351     -410.24053      122.84698     -287.39355      597.89014    
    165000   1966.7473      237249.17      5880.7351     -414.21783      126.8568      -287.36103      583.4541     
    166000   1895.9591      243955.73      5880.7351     -409.02959      122.2909      -286.73868      608.69266    
    167000   1999.9651      235788.47      5880.7351     -416.07899      128.99937     -287.07962      578.37404    
    168000   1908.8604      243338.48      5880.7351     -408.83546      123.12304     -285.71242      607.4533     
    169000   1940.5751      241149.93      5880.7351     -411.35967      125.16867     -286.191        598.94173    
    170000   1978.0518      238077.61      5880.7351     -413.42426      127.58595     -285.83831      588.01758    
    171000   2028.9138      235658.82      5880.7351     -416.00681      130.86659     -285.14022      579.83759    
    172000   2072.0869      232218.26      5880.7351     -418.23805      133.65129     -284.58676      567.76258    
    173000   2017.3202      238421.33      5880.7351     -413.07477      130.11879     -282.95598      592.16152    
    174000   1988.1162      240892.64      5880.7351     -412.39008      128.23511     -284.15497      600.0334     
    175000   1976.5206      241054.95      5880.7351     -411.59318      127.48718     -284.106        600.67812    
    176000   2018.2015      239118.71      5880.7351     -413.28898      130.17564     -283.11335      594.56386    
    177000   1949.9745      244626.07      5880.7351     -408.6718       125.77494     -282.89686      614.99492    
    178000   2075.1127      234835.53      5880.7351     -416.38877      133.84645     -282.54231      579.41363    
    179000   1962.7654      244866.87      5880.7351     -408.29052      126.59996     -281.69056      617.08509    
    180000   2036.7297      239424.69      5880.7351     -412.92099      131.37072     -281.55027      597.25002    
    181000   2028.358       241053.67      5880.7351     -411.41576      130.83074     -280.58502      604.19439    
    182000   2102.966       235037.67      5880.7351     -416.28042      135.64301     -280.63741      582.06048    
    183000   2016.8364      242559.33      5880.7351     -410.84015      130.08758     -280.75256      609.55332    
    184000   2024.9346      243166.01      5880.7351     -410.30485      130.60993     -279.69492      612.83778    
    185000   2018.6605      243670.62      5880.7351     -410.71669      130.20524     -280.51145      613.87339    
    186000   2085.4032      239301.29      5880.7351     -413.60799      134.5102      -279.09779      599.24957    
    187000   1972.0774      248415.52      5880.7351     -406.22554      127.20059     -279.02494      632.77591    
    188000   2169.2627      233128.61      5880.7351     -418.49397      139.91921     -278.57476      577.11599    
    189000   1970.0627      250539.67      5880.7351     -404.54536      127.07065     -277.47471      642.12276    
    190000   2011.7896      248067.75      5880.7351     -406.37555      129.76206     -276.61349      633.91086    
    191000   1989.5434      249833.2       5880.7351     -405.40169      128.32717     -277.07453      639.92987    
    192000   2023.6419      248356.11      5880.7351     -406.78891      130.52654     -276.26236      635.3204     
    193000   2090.4535      241752.76      5880.7351     -412.39831      134.83595     -277.56237      609.78302    
    194000   2063.9344      245633.66      5880.7351     -408.54603      133.12544     -275.42059      626.16952    
    195000   2007.4637      250441.57      5880.7351     -405.2531       129.48304     -275.77006      643.46734    
    196000   2045.3756      247640.19      5880.7351     -407.51699      131.92839     -275.5886       633.36643    
    197000   2040.3179      247613.19      5880.7351     -406.30406      131.60216     -274.7019       634.15401    
    198000   2015.4193      250368.33      5880.7351     -404.2979       129.99618     -274.30172      644.66684    
    199000   2030.4353      250954.24      5880.7351     -404.93373      130.96473     -273.969        647.15011    
    200000   2045.7518      249958.57      5880.7351     -405.54522      131.95265     -273.59257      643.87198    
    201000   2123.7716      243396.56      5880.7351     -410.05122      136.985       -273.06622      620.31267    
    202000   2109.2302      245477.41      5880.7351     -409.63032      136.04706     -273.58325      627.43336    
    203000   2125.857       244314.97      5880.7351     -410.16519      137.1195      -273.04568      623.70422    
    204000   2111.7207      246710.56      5880.7351     -408.65045      136.2077      -272.44275      633.10007    
    205000   2054.8382      251696.82      5880.7351     -404.86398      132.53873     -272.32525      651.51948    
    206000   2057.2205      251244.98      5880.7351     -404.24189      132.69239     -271.5495       650.63677    
    207000   2141.0764      246654.77      5880.7351     -408.96152      138.10117     -270.86035      634.47773    
    208000   2181.9194      242949.03      5880.7351     -411.07701      140.73558     -270.34144      621.39484    
    209000   2192.9971      242369.59      5880.7351     -411.53956      141.45009     -270.08947      619.52       
    210000   2127.1987      249269.07      5880.7351     -407.18717      137.20604     -269.98113      644.95264    
    211000   2115.019       249728.43      5880.7351     -405.72363      136.42044     -269.30319      647.31664    
    212000   2042.1741      256159.07      5880.7351     -400.9027       131.72189     -269.18081      671.04245    
    213000   2137.1022      250975.97      5880.7351     -405.39568      137.84483     -267.55085      653.64805    
    214000   2130.7187      250190.1       5880.7351     -405.63549      137.43308     -268.20241      650.11195    
    215000   2112.3009      252996.69      5880.7351     -404.10967      136.24512     -267.86455      660.75132    
    216000   2205.2395      246001.67      5880.7351     -409.4521       142.23974     -267.21236      635.72854    
    217000   2248.0785      242944.81      5880.7351     -411.77534      145.00289     -266.77246      624.94831    
    218000   2090.3038      256446.2       5880.7351     -401.94266      134.82629     -267.11637      674.16083    
    219000   2106.1084      254911.11      5880.7351     -403.03315      135.8457      -267.18744      668.45523    
    220000   2227.9328      246240.06      5880.7351     -409.94386      143.70348     -266.24038      637.5755     
    221000   2191.0895      249371.48      5880.7351     -407.34634      141.32705     -266.01929      649.29037    
    222000   2106.1696      257357.39      5880.7351     -400.04398      135.84965     -264.19433      680.42736    
    223000   2195.0022      251002.9       5880.7351     -405.81568      141.57943     -264.23625      657.06146    
    224000   2154.41        254101.86      5880.7351     -403.05418      138.9612      -264.09298      668.57936    
    225000   2202.5591      250885.66      5880.7351     -406.08014      142.06685     -264.01329      656.85412    
    226000   2193.3313      253613.36      5880.7351     -404.16254      141.47165     -262.69089      668.18844    
    227000   2158.3074      255918.29      5880.7351     -402.45948      139.21258     -263.24689      676.09263    
    228000   2179.6355      254727.9       5880.7351     -403.85027      140.58826     -263.26201      671.7082     
    229000   2154.8918      257157.45      5880.7351     -401.01103      138.99227     -262.01876      681.86903    
    230000   2201.5683      254159.04      5880.7351     -404.80823      142.00294     -262.80528      670.07696    
    231000   2112.9069      261724.03      5880.7351     -398.15949      136.28421     -261.87528      698.77401    
    232000   2157.8839      259626.02      5880.7351     -399.2648       139.18526     -260.07954      692.86907    
    233000   2144.2024      260691.88      5880.7351     -398.69104      138.3028      -260.38824      696.47257    
    234000   2254.8125      251966.98      5880.7351     -405.17827      145.43724     -259.74104      665.09531    
    235000   2167.954       259754.32      5880.7351     -399.07088      139.83479     -259.23608      694.18345    
    236000   2245.303       254190.73      5880.7351     -403.84482      144.82387     -259.02095      673.97762    
    237000   2219.807       256406.82      5880.7351     -402.54364      143.17935     -259.36429      681.76834    
    238000   2069.3375      269070.54      5880.7351     -392.43095      133.47395     -258.95701      728.65739    
    239000   2215.4811      258200.84      5880.7351     -401.38179      142.90033     -258.48146      689.23608    
    240000   2157.1236      263126.25      5880.7351     -397.21707      139.13622     -258.08085      707.71523    
    241000   2320.0717      251437.82      5880.7351     -406.84187      149.64651     -257.19537      665.6987     
    242000   2323.084       250932.26      5880.7351     -407.28413      149.84081     -257.44332      663.59511    
    243000   2195.9362      262408.79      5880.7351     -397.12776      141.63967     -255.48809      707.67456    
    244000   2296.5125      254510.24      5880.7351     -404.4194       148.12692     -256.29247      677.87881    
    245000   2197.2282      263274.12      5880.7351     -396.88852      141.723       -255.16551      711.17332    
    246000   2112.2083      270033.36      5880.7351     -391.11668      136.23915     -254.87753      736.27087    
    247000   2182.1736      265749.97      5880.7351     -395.68581      140.75197     -254.93384      720.49252    
    248000   2261.5014      258864.04      5880.7351     -400.53056      145.86868     -254.66188      695.4899     
    249000   2206.6266      264774.51      5880.7351     -396.52298      142.32921     -254.19377      717.65218    
    250000   2261.1293      259896.11      5880.7351     -399.89936      145.84468     -254.05468      699.88527    
    251000   2260.2281      261614.11      5880.7351     -399.1047       145.78655     -253.31814      706.92766    
    252000   2211.397       265830.55      5880.7351     -396.02073      142.6369      -253.38383      722.33829    
    253000   2225.4571      264694.67      5880.7351     -396.21363      143.54379     -252.66984      718.88309    
    254000   2264.1048      262322.36      5880.7351     -398.18845      146.0366      -252.15185      710.69356    
    255000   2316.4276      259294.43      5880.7351     -401.84578      149.41146     -252.43432      699.29719    
    256000   2242.7453      266590.54      5880.7351     -394.90866      144.65889     -250.24976      728.26188    
    257000   2250.547       266396.79      5880.7351     -396.10266      145.16211     -250.94056      726.85993    
    258000   2325.554       260530.62      5880.7351     -400.13685      150.00012     -250.13673      706.13219    
    259000   2355.4919      258563.25      5880.7351     -402.12958      151.93114     -250.19844      698.84932    
    260000   2293.9546      264647.17      5880.7351     -396.70237      147.96194     -248.74043      722.63812    
    261000   2222.1746      268987.36      5880.7351     -392.45848      143.33206     -249.12642      738.18267    
    262000   2281.658       266051.72      5880.7351     -395.60653      147.16879     -248.43774      728.09618    
    263000   2382.8099      259210.04      5880.7351     -402.70062      153.69318     -249.00744      702.41431    
    264000   2264.2139      268780.11      5880.7351     -393.43772      146.04364     -247.39408      739.1543     
    265000   2284.8377      267220.8       5880.7351     -395.24295      147.37389     -247.86906      732.95594    
    266000   2338.6346      262960.48      5880.7351     -397.67396      150.84383     -246.83013      718.35748    
    267000   2254.9709      271530.85      5880.7351     -391.68708      145.44745     -246.23963      750.40524    
    268000   2386.9321      260743.08      5880.7351     -400.46847      153.95906     -246.50941      710.5393     
    269000   2446.6882      257752.66      5880.7351     -403.79383      157.81338     -245.98045      700.09205    
    270000   2305.8674      268426.79      5880.7351     -393.2792       148.73032     -244.54888      740.70264    
    271000   2340.7923      266421.7       5880.7351     -396.35448      150.983       -245.37147      732.52045    
    272000   2284.7523      271855.68      5880.7351     -392.53273      147.36838     -245.16435      752.67282    
    273000   2290.2469      272250.6       5880.7351     -392.33549      147.72279     -244.6127       754.67401    
    274000   2403.1198      263304.45      5880.7351     -399.91984      155.00318     -244.91666      721.53351    
    275000   2335.8738      270078.95      5880.7351     -393.31439      150.66575     -242.64863      748.66709    
    276000   2194.7337      280345.34      5880.7351     -384.4036       141.56211     -242.84149      786.15667    
    277000   2362.0746      267690.58      5880.7351     -395.76091      152.35573     -243.40518      739.14413    
    278000   2304.9405      272673.69      5880.7351     -390.60401      148.67053     -241.93348      758.90618    
    279000   2331.6161      270780.1       5880.7351     -392.18698      150.39113     -241.79585      752.09341    
    280000   2402.5382      267271.45      5880.7351     -396.59471      154.96567     -241.62905      739.38183    
    281000   2427.9622      265269.71      5880.7351     -397.64222      156.60554     -241.03669      732.6269     
    282000   2354.7107      270838.09      5880.7351     -391.81819      151.88075     -239.93744      754.16471    
    283000   2511.8905      260023.55      5880.7351     -401.5981       162.01897     -239.57912      714.8286     
    284000   2390.2102      269634.9       5880.7351     -394.09836      154.1705      -239.92786      749.75801    
    285000   2340.2634      273903.24      5880.7351     -389.67317      150.94889     -238.72428      766.62839    
    286000   2410.9441      270073.7       5880.7351     -393.62703      155.50785     -238.11917      753.17727    
    287000   2285.8937      279914.11      5880.7351     -386.46069      147.442       -239.01869      788.39668    
    288000   2379.6661      273252.15      5880.7351     -392.44784      153.49039     -238.95744      764.00541    
    289000   2485.5696      265779.04      5880.7351     -397.96627      160.32126     -237.64501      737.88805    
    290000   2378.2752      273339.83      5880.7351     -391.4527       153.40068     -238.05202      765.23268    
    291000   2347.1387      277443.77      5880.7351     -388.81418      151.39235     -237.42183      780.92623    
    292000   2397.5504      273579.87      5880.7351     -391.57476      154.64395     -236.93081      767.23493    
    293000   2368.2238      277755.56      5880.7351     -387.77466      152.75236     -235.0223       784.47017    
    294000   2469.5186      269230.57      5880.7351     -394.86694      159.28596     -235.58099      752.62081    
    295000   2325.9429      281518.38      5880.7351     -385.00997      150.0252      -234.98476      798.31899    
    296000   2430.2437      274108.82      5880.7351     -391.2719       156.75269     -234.51921      771.58802    
    297000   2427.704       274817.4       5880.7351     -390.49001      156.58888     -233.90114      774.8069     
    298000   2332.1917      282607.55      5880.7351     -384.04302      150.42826     -233.61476      803.68676    
    299000   2413.3007      277067.48      5880.7351     -388.59574      155.65986     -232.93589      784.031      
    300000   2514.9986      270179.75      5880.7351     -394.56639      162.21945     -232.34694      759.33878    
    301000   2447.2599      275807.9       5880.7351     -391.00238      157.85025     -233.15213      779.1915     
    302000   2344.0771      284539.86      5880.7351     -382.44378      151.19488     -231.2489       813.1451     
    303000   2510.6228      270505.26      5880.7351     -393.41506      161.93721     -231.47785      761.40263    
    304000   2326.7015      286839.08      5880.7351     -381.36964      150.07414     -231.2955       821.53773    
    305000   2353.7943      285329.32      5880.7351     -382.7925       151.82165     -230.97086      816.32084    
    306000   2499.8505      273850.67      5880.7351     -391.06003      161.24239     -229.81765      775.34207    
    307000   2359.862       286499.28      5880.7351     -381.67982      152.21302     -229.46681      822.1192     
    308000   2345.1678      287623.45      5880.7351     -380.99695      151.26523     -229.73172      825.98052    
    309000   2530.995       273704.93      5880.7351     -392.0092       163.25124     -228.75797      775.86681    
    310000   2412.6689      283819.91      5880.7351     -384.405        155.6191      -228.78589      812.96558    
    311000   2562.6371      272513.18      5880.7351     -393.91614      165.29218     -228.62397      771.62653    
    312000   2430.3084      283074.9       5880.7351     -384.94931      156.75687     -228.19244      810.82447    
    313000   2426.5828      284401.96      5880.7351     -384.28147      156.51656     -227.76491      816.12295    
    314000   2426.0113      285680.49      5880.7351     -383.41011      156.4797      -226.93041      821.65024    
    315000   2536.1789      276780.08      5880.7351     -389.97534      163.5856      -226.38974      789.52228    
    316000   2434.3945      284820.29      5880.7351     -382.94411      157.02042     -225.92369      819.49962    
    317000   2464.8817      283378.72      5880.7351     -384.39751      158.98687     -225.41064      814.72145    
    318000   2425.9267      288425.15      5880.7351     -381.66774      156.47425     -225.1935       833.46134    
    319000   2423.0459      289189.73      5880.7351     -380.9001       156.28843     -224.61167      836.84956    
    320000   2540.7066      280119.82      5880.7351     -388.82262      163.87764     -224.94498      803.22543    
    321000   2506.5107      282635.52      5880.7351     -386.47212      161.67198     -224.80014      812.60405    
    322000   2519.1215      280280.34      5880.7351     -386.69094      162.48538     -224.20556      804.55404    
    323000   2559.6981      280981         5880.7351     -387.91538      165.1026      -222.81277      808.51858    
    324000   2468.8564      287371.78      5880.7351     -382.11815      159.24324     -222.87491      831.91358    
    325000   2648.8078      273194.54      5880.7351     -392.48177      170.85026     -221.63151      781.1199     
    326000   2515.8118      284656.94      5880.7351     -384.02508      162.27191     -221.75318      823.07056    
    327000   2512.4593      285602.8       5880.7351     -383.83491      162.05566     -221.77924      826.51625    
    328000   2492.5759      287300.28      5880.7351     -381.61642      160.77317     -220.84325      833.6828     
    329000   2487.0922      288677.7       5880.7351     -381.46168      160.41947     -221.04221      838.53962    
    330000   2456.6942      292493.86      5880.7351     -378.24604      158.45877     -219.78726      853.80166    
    331000   2538.3087      285638.75      5880.7351     -384.60317      163.72297     -220.8802       827.54726    
    332000   2613.2846      280935.24      5880.7351     -388.14546      168.55898     -219.58648      811.57691    
    333000   2492.2875      290453.91      5880.7351     -379.34826      160.75457     -218.59369      847.50765    
    334000   2592.667       283213.41      5880.7351     -385.84362      167.22913     -218.61449      820.91084    
    335000   2548.3205      287380.77      5880.7351     -382.38909      164.36874     -218.02035      836.80113    
    336000   2506.2135      292081.67      5880.7351     -379.78994      161.6528      -218.13714      853.93885    
    337000   2586.9153      285828.03      5880.7351     -384.68627      166.85814     -217.82813      831.29406    
    338000   2577.3347      287535.82      5880.7351     -383.65227      166.24018     -217.41209      837.97851    
    339000   2567.218       288474.22      5880.7351     -382.67924      165.58765     -217.0916       841.74335    
    340000   2553.8727      289889.15      5880.7351     -380.8821       164.72686     -216.15524      847.87316    
    341000   2707.0401      278238.2       5880.7351     -390.31657      174.60629     -215.71029      805.5537     
    342000   2571.8701      290567.74      5880.7351     -380.70414      165.88771     -214.81642      851.70272    
    343000   2485.0428      297385.65      5880.7351     -374.66847      160.28728     -214.38119      877.16287    
    344000   2586.1931      289492.62      5880.7351     -380.78358      166.81156     -213.97202      848.60092    
    345000   2643.9576      286106.44      5880.7351     -384.2971       170.53741     -213.75969      836.38439    
    346000   2627.1435      287645.16      5880.7351     -383.15301      169.45289     -213.70012      842.09179    
    347000   2643.0821      287588.95      5880.7351     -383.48341      170.48094     -213.00246      842.58312    
    348000   2653.1802      287148.34      5880.7351     -384.31213      171.13228     -213.17986      840.7885     
    349000   2612.7254      289776.34      5880.7351     -381.02399      168.52291     -212.50108      851.11327    
    350000   2499.8784      299570.53      5880.7351     -372.81342      161.24419     -211.56924      887.99434    
    351000   2645.0587      288669.87      5880.7351     -382.46944      170.60843     -211.861        847.69208    
    352000   2565.4793      296767.96      5880.7351     -376.36897      165.4755      -210.89347      878.38337    
    353000   2666.5172      288263.36      5880.7351     -383.17946      171.99252     -211.18694      846.87408    
    354000   2657.5858      290194.82      5880.7351     -381.45878      171.41645     -210.04234      855.10802    
    355000   2666.4309      288965.89      5880.7351     -382.76613      171.98696     -210.77917      849.86043    
    356000   2612.4431      294225.25      5880.7351     -378.15839      168.5047      -209.65368      870.29024    
    357000   2621.427       294056.92      5880.7351     -378.17408      169.08417     -209.08991      870.23616    
    358000   2694.9196      289755.74      5880.7351     -382.36054      173.8245      -208.53604      855.00268    
    359000   2640.86        293102.33      5880.7351     -379.59298      170.33761     -209.25537      866.56689    
    360000   2674.1181      291639.02      5880.7351     -380.55235      172.48279     -208.06956      862.3817     
    361000   2571.981       300819.67      5880.7351     -372.81572      165.89486     -206.92086      897.22764    
    362000   2744.3747      287720.35      5880.7351     -383.52393      177.0144      -206.50953      849.55837    
    363000   2607.722       298799.94      5880.7351     -375.20307      168.20019     -207.00288      889.73228    
    364000   2688.2608      293520.77      5880.7351     -379.27337      173.395       -205.87836      871.47976    
    365000   2795.4377      285718         5880.7351     -386.6766       180.308       -206.3686       842.34975    
    366000   2671.3758      295483.62      5880.7351     -378.10129      172.30591     -205.79538      878.76734    
    367000   2666.5549      295581.63      5880.7351     -377.19191      171.99495     -205.19695      879.72553    
    368000   2715.8662      293334.24      5880.7351     -379.83762      175.17557     -204.66204      872.01146    
    369000   2717.1028      293704.19      5880.7351     -379.60198      175.25534     -204.34664      873.68473    
    370000   2649.6629      299686.98      5880.7351     -374.31247      170.90541     -203.40706      896.58395    
    371000   2763.7879      292472.44      5880.7351     -381.07872      178.26657     -202.81215      870.69813    
    372000   2794.5266      288927.39      5880.7351     -384.12343      180.24923     -203.8742       856.62411    
    373000   2600.1536      304293.71      5880.7351     -370.80371      167.71202     -203.09169      913.80819    
    374000   2647.6376      300745.83      5880.7351     -373.41374      170.77478     -202.63896      901.23852    
    375000   2737.2152      295819.12      5880.7351     -377.87738      176.5526      -201.32478      884.46938    
    376000   2596.0312      307770.65      5880.7351     -368.65742      167.44612     -201.2113       928.45056    
    377000   2577.3414      309354.87      5880.7351     -366.87739      166.24061     -200.63677      934.8399     
    378000   2687.7744      300758.2       5880.7351     -373.99771      173.36363     -200.63408      903.28882    
    379000   2758.1728      295276.52      5880.7351     -378.43419      177.90439     -200.52981      883.27276    
    380000   2692.3001      302201.56      5880.7351     -372.80937      173.65554     -199.15383      910.06686    
    381000   2666.6999      304846.98      5880.7351     -371.33346      172.00431     -199.32914      919.60146    
    382000   2721.2264      300618.05      5880.7351     -374.89723      175.52131     -199.37592      904.03257    
    383000   2718.314       301776.46      5880.7351     -373.91823      175.33346     -198.58476      909.07563    
    384000   2775.644       297625.28      5880.7351     -377.51008      179.03129     -198.47879      893.94481    
    385000   2695.5956      304083.69      5880.7351     -371.26566      173.86811     -197.39755      918.73145    
    386000   2823.077       294675.7       5880.7351     -379.19872      182.09076     -197.10796      884.4893     
    387000   2667.275       306976.12      5880.7351     -369.79189      172.04141     -197.75048      928.99507    
    388000   2852.9904      292667.67      5880.7351     -381.04667      184.0202      -197.02648      877.20039    
    389000   2861.1011      293164.87      5880.7351     -381.71292      184.54334     -197.16958      878.88223    
    390000   2688.3063      308049.5       5880.7351     -368.58615      173.39794     -195.18821      935.49715    
    391000   2707.4553      305809.76      5880.7351     -370.41918      174.63307     -195.78611      926.67834    
    392000   2593.9431      316454.11      5880.7351     -362.75045      167.31144     -195.43901      966.09517    
    393000   2856.0927      296484.76      5880.7351     -378.86647      184.2203      -194.64617      893.59119    
    394000   2760.6186      304090         5880.7351     -372.51826      178.06214     -194.45612      921.69602    
    395000   2720.4901      308226.05      5880.7351     -368.81605      175.47382     -193.34223      937.99117    
    396000   2718.5928      308098.63      5880.7351     -369.19328      175.35144     -193.84184      937.02386    
    397000   2826.097       299776.08      5880.7351     -376.05132      182.28556     -193.76577      906.55227    
    398000   2663.6087      312212.57      5880.7351     -365.75743      171.80493     -193.9525       952.01327    
    399000   2663.5303      313937.4       5880.7351     -364.35177      171.79987     -192.5519       959.74479    
    400000   2753.1564      308637.26      5880.7351     -369.67256      177.58082     -192.09173      940.75098    
    401000   2761.2041      308904.37      5880.7351     -369.36511      178.09991     -191.2652       942.55792    
    402000   2785.8234      304840.19      5880.7351     -371.47604      179.68787     -191.78816      927.11754    
    403000   2754.0601      309015.7       5880.7351     -368.55152      177.63911     -190.9124       943.31936    
    404000   2792.4459      306035.7       5880.7351     -370.03188      180.11503     -189.91685      933.37693    
    405000   2766.7865      309697.67      5880.7351     -368.55081      178.45998     -190.09083      946.64409    
    406000   2726.5304      314381.29      5880.7351     -365.24863      175.86342     -189.38521      964.54077    
    407000   2850.2076      304203.89      5880.7351     -372.43879      183.8407      -188.59809      927.9721     
    408000   2791.8744      308856.27      5880.7351     -368.23336      180.07816     -188.1552       945.49139    
    409000   2913.442       301491.59      5880.7351     -376.05958      187.91938     -188.1402       918.47458    
    410000   2951.9944      297568.08      5880.7351     -378.12548      190.40604     -187.71944      904.49421    
    411000   2857.3764      305295.35      5880.7351     -371.51707      184.3031      -187.21397      933.36239    
    412000   2986.0429      296255.38      5880.7351     -380.38837      192.60219     -187.78618      899.60927    
    413000   2747.3892      314899.42      5880.7351     -363.05261      177.20884     -185.84378      969.98397    
    414000   2782.171       311636.75      5880.7351     -365.71388      179.45229     -186.26159      957.59066    
    415000   2834.6282      310120.69      5880.7351     -368.93889      182.83582     -186.10308      952.18452    
    416000   2880.7189      306158.97      5880.7351     -371.75678      185.80871     -185.94807      937.79815    
    417000   2776.2779      315419.35      5880.7351     -363.81006      179.07218     -184.73788      972.99827    
    418000   2818.356       312796.76      5880.7351     -367.11169      181.78625     -185.32544      962.78458    
    419000   2732.4993      320656.16      5880.7351     -360.80486      176.24842     -184.55643      992.40124    
    420000   2804.1457      314546.35      5880.7351     -365.71126      180.86968     -184.84159      969.69024    
    421000   2886.3511      309457.87      5880.7351     -369.83032      186.17199     -183.65833      952.19641    
    422000   2897.134       308411.28      5880.7351     -370.80023      186.8675      -183.93273      948.08052    
    423000   2609.386       331650.41      5880.7351     -351.07094      168.30752     -182.76342      1034.5483    
    424000   2836.393       313868.57      5880.7351     -365.69776      182.94965     -182.74811      969.29597    
    425000   2856.1497      313557.65      5880.7351     -366.73703      184.22398     -182.51306      968.3898     
    426000   2791.4315      318163.89      5880.7351     -362.24848      180.0496      -182.19888      985.61099    
    427000   2876.4784      311783.5       5880.7351     -367.7024       185.5352      -182.16721      962.22367    
    428000   2844.7172      315728.85      5880.7351     -363.77176      183.48657     -180.28519      978.58698    
    429000   2689.9202      328022.94      5880.7351     -354.22332      173.50204     -180.72128      1023.2759    
    430000   2849.6372      315928.92      5880.7351     -363.94186      183.80391     -180.13795      979.46855    
    431000   2839.384       317104.13      5880.7351     -363.7962       183.14257     -180.65362      983.26645    
    432000   2770.6066      324479.74      5880.7351     -357.96603      178.70637     -179.25965      1011.7324    
    433000   2813.3885      320363.39      5880.7351     -360.1969       181.46584     -178.73106      997.15201    
    434000   2820.8448      319135.9       5880.7351     -361.10725      181.94678     -179.16047      992.21714    
    435000   2968.6508      310281.08      5880.7351     -369.97202      191.48039     -178.49164      960.38465    
    436000   2919.1972      314527.38      5880.7351     -366.02869      188.29059     -177.7381       976.72409    
    437000   2933.5226      313942.32      5880.7351     -367.02808      189.21459     -177.81349      974.50129    
    438000   2864.3964      319196.65      5880.7351     -362.64163      184.7559      -177.88574      993.71487    
    439000   2952.7059      314082.42      5880.7351     -366.96481      190.45193     -176.51288      976.31612    
    440000   2846.4092      322474.17      5880.7351     -359.90909      183.59571     -176.31338      1007.3172    
    441000   2822.9368      323497.94      5880.7351     -358.29472      182.08171     -176.21301      1011.1753    
    442000   2801.8459      325684.24      5880.7351     -356.72544      180.72134     -176.0041       1019.409     
    443000   3026.1559      309332.18      5880.7351     -370.38699      195.18951     -175.19747      960.19593    
    444000   2890.4752      320103.49      5880.7351     -362.14464      186.438       -175.70665      999.22249    
    445000   2868.2974      322701.14      5880.7351     -360.1613       185.00751     -175.15379      1009.3099    
    446000   2929.4656      318409.23      5880.7351     -363.22595      188.95291     -174.27304      994.43738    
    447000   2959.0128      315605.08      5880.7351     -364.74525      190.85873     -173.88652      984.53136    
    448000   2901.959       321125.11      5880.7351     -361.00866      187.17872     -173.82995      1004.849     
    449000   2897.8668      323109.13      5880.7351     -360.19721      186.91477     -173.28245      1012.6788    
    450000   2933.0678      321046.47      5880.7351     -362.35626      189.18525     -173.17101      1005.2193    
    451000   2992.9219      315187.5       5880.7351     -366.36201      193.04589     -173.31612      983.56904    
    452000   3071.7654      310535.86      5880.7351     -370.53798      198.13136     -172.40662      967.40486    
    453000   2905.8831      322717.79      5880.7351     -360.77478      187.43182     -173.34296      1011.1819    
    454000   2921.2677      322472.92      5880.7351     -360.1057       188.42414     -171.68155      1011.9445    
    455000   2868.0381      326423.16      5880.7351     -357.04474      184.99079     -172.05396      1026.0713    
    456000   2905.2945      325085.55      5880.7351     -357.5463       187.39386     -170.15244      1023.0632    
    457000   2886.2177      326209.09      5880.7351     -356.87583      186.16339     -170.71244      1026.6271    
    458000   2994.0866      318437.57      5880.7351     -363.32651      193.12102     -170.2055       998.60894    
    459000   2854.7017      329419.46      5880.7351     -354.72648      184.13058     -170.5959       1038.5272    
    460000   2870.3048      331106.93      5880.7351     -354.08725      185.13699     -168.95025      1046.3666    
    461000   2854.4196      330562.35      5880.7351     -353.13876      184.11238     -169.02637      1044.2917    
    462000   3049.713       316681.13      5880.7351     -365.38398      196.70897     -168.67501      993.69246    
    463000   2883.7437      330631.96      5880.7351     -353.58674      186.00381     -167.58293      1045.9906    
    464000   2836.2624      334569.32      5880.7351     -351.82019      182.94123     -168.87896      1059.1465    
    465000   2946.9538      325568.09      5880.7351     -359.5116       190.08091     -169.43069      1025.5561    
    466000   2901.2928      330461.96      5880.7351     -354.86791      187.13575     -167.73216      1045.2174    
    467000   3070.1213      316407.44      5880.7351     -366.23851      198.02532     -168.2132       993.14971    
    468000   2912.9388      329396.49      5880.7351     -354.54742      187.88692     -166.6605       1042.3783    
    469000   3066.3049      318494.37      5880.7351     -366.13546      197.77916     -168.35631      1000.6666    
    470000   3111.2616      315205.1       5880.7351     -367.11375      200.6789      -166.43485      990.51492    
    471000   2969.7458      327162.42      5880.7351     -357.83783      191.55102     -166.28681      1034.5519    
    472000   3034.0379      322287.59      5880.7351     -361.12464      195.69791     -165.42673      1017.5191    
    473000   2893.4191      331890.58      5880.7351     -352.87461      186.62788     -166.24673      1051.9465    
    474000   2949.4871      328501.36      5880.7351     -355.62966      190.24432     -165.38534      1040.3679    
    475000   3084.019       319392.47      5880.7351     -364.62535      198.92173     -165.70362      1006.6157    
    476000   3013.5528      325297.78      5880.7351     -359.41546      194.37661     -165.03886      1028.9557    
    477000   3026.8365      324944.04      5880.7351     -359.92927      195.23341     -164.69586      1028.0003    
    478000   3143.7308      315266.27      5880.7351     -366.41134      202.77319     -163.63815      993.53611    
    479000   2918.1834      334124.59      5880.7351     -351.29847      188.2252      -163.07327      1063.3198    
    480000   3216.5211      310751.82      5880.7351     -371.65583      207.46822     -164.18761      976.41652    
    481000   2954.9629      332160.79      5880.7351     -353.22689      190.5975      -162.62938      1056.5557    
    482000   2920.5021      335351.62      5880.7351     -351.25577      188.37476     -162.88101      1068.0159    
    483000   3066.3932      323739.61      5880.7351     -359.80781      197.78486     -162.02295      1026.2524    
    484000   3016.3922      328855.69      5880.7351     -357.33407      194.55975     -162.77433      1044.2794    
    485000   3007.6253      330831.95      5880.7351     -355.8729       193.99428     -161.87863      1052.429     
    486000   3200.5803      315713.91      5880.7351     -367.85984      206.44003     -161.4198       997.39751    
    487000   3175.7187      318029.94      5880.7351     -366.42728      204.83643     -161.59084      1005.7274    
    488000   3091.2697      324828.64      5880.7351     -360.27834      199.3894      -160.88894      1031.3837    
    489000   2993.3275      334077.44      5880.7351     -353.66156      193.07206     -160.5895       1065.6305    
    490000   3137.023       322090.2       5880.7351     -362.47833      202.34053     -160.1378       1022.0835    
    491000   2962.5818      334789.22      5880.7351     -351.24889      191.08893     -160.15996      1068.6726    
    492000   3017.042       332723.81      5880.7351     -354.44535      194.60166     -159.8437       1061.4079    
    493000   3061.0947      329596.11      5880.7351     -356.52217      197.44309     -159.07908      1050.6924    
    494000   3069.2203      330633.06      5880.7351     -356.68254      197.9672      -158.71534      1054.8622    
    495000   3162.3802      320867.04      5880.7351     -363.86309      203.97609     -159.887        1017.8447    
    496000   2994.7033      336077.45      5880.7351     -351.21893      193.1608      -158.05813      1075.5029    
    497000   3200.5513      320103.46      5880.7351     -364.9327       206.43816     -158.49454      1016.4345    
    498000   3050.2227      331462.8       5880.7351     -355.03549      196.74184     -158.29365      1058.3294    
    499000   2929.1607      340893.11      5880.7351     -347.31957      188.93325     -158.38633      1092.8504    
    500000   3076.9292      330480.51      5880.7351     -355.32803      198.46443     -156.8636       1056.154     
    501000   3100.4313      329033.37      5880.7351     -357.11186      199.98034     -157.13152      1050.5744    
    502000   3095.8128      328900.33      5880.7351     -355.93431      199.68244     -156.25187      1050.9658    
    503000   3094.4491      330151.25      5880.7351     -356.68941      199.59448     -157.09493      1054.7142    
    504000   3039.9389      336081.66      5880.7351     -351.99337      196.07853     -155.91484      1077.6616    
    505000   3129.1295      328229.16      5880.7351     -358.23538      201.83139     -156.40399      1048.3501    
    506000   3105.0353      330109.71      5880.7351     -356.69305      200.2773      -156.41575      1055.2409    
    507000   3093.1674      332376.74      5880.7351     -355.03059      199.51181     -155.51878      1064.4589    
    508000   2973.0195      340989.68      5880.7351     -347.54716      191.76218     -155.78499      1095.8062    
    509000   3058.1227      335656.15      5880.7351     -352.59034      197.2514      -155.33894      1076.6757    
    510000   3171.2168      327507.53      5880.7351     -359.09822      204.54606     -154.55216      1047.5532    
    511000   3171.2569      326749.55      5880.7351     -359.7448       204.54865     -155.19615      1044.1271    
    512000   3319.6543      314936.34      5880.7351     -369.72052      214.1204      -155.60012      1000.3631    
    513000   3058.0909      336013.15      5880.7351     -351.61594      197.24935     -154.36659      1078.9584    
    514000   3102.7627      332532.36      5880.7351     -354.43816      200.13071     -154.30744      1066.2414    
    515000   3113.1879      333653.95      5880.7351     -355.07319      200.80315     -154.27004      1070.3956    
    516000   3015.4251      341763.31      5880.7351     -347.30988      194.49737     -152.81251      1101.6183    
    517000   3118.2283      332878.18      5880.7351     -354.15971      201.12826     -153.03145      1068.7868    
    518000   3098.6325      334564.22      5880.7351     -353.48932      199.86431     -153.625        1074.3817    
    519000   3190.9932      327336.21      5880.7351     -358.59315      205.82165     -152.7715       1048.7051    
    520000   3035.0204      340623.29      5880.7351     -347.63098      195.76128     -151.8697       1098.3767    
    521000   3079.1923      337408.7       5880.7351     -350.31709      198.61041     -151.70668      1086.7406    
    522000   3193.2329      329220.81      5880.7351     -356.78599      205.96612     -150.81987      1057.5741    
    523000   3043.9009      340516.93      5880.7351     -348.29646      196.33408     -151.96238      1097.8936    
    524000   3183.1625      331542.71      5880.7351     -356.56463      205.31657     -151.24806      1065.6683    
    525000   3187.2337      329867.75      5880.7351     -357.47504      205.57916     -151.89587      1058.8726    
    526000   3028.923       343220.01      5880.7351     -345.69308      195.36799     -150.32509      1109.4525    
    527000   3011.423       343542.72      5880.7351     -345.63078      194.23923     -151.39154      1109.5705    
    528000   3231.1102      328644.55      5880.7351     -357.6077       208.40923     -149.19846      1057.0804    
    529000   3024.5708      342700.86      5880.7351     -345.49613      195.08728     -150.40885      1107.4632    
    530000   3200.4307      330829.95      5880.7351     -356.48552      206.43038     -150.05514      1064.2451    
    531000   3092.3367      339824.68      5880.7351     -350.23794      199.45823     -150.77971      1096.5354    
    532000   3162.0161      334042.94      5880.7351     -354.0539       203.95261     -150.1013       1075.9921    
    533000   3248.1734      327702.32      5880.7351     -359.28071      209.50983     -149.77089      1053.0495    
    534000   3208.1859      331270.26      5880.7351     -357.93896      206.9306      -151.00836      1064.908     
    535000   3207.0384      331054.76      5880.7351     -356.18132      206.85658     -149.32474      1065.8006    
    536000   3235.5758      330913.61      5880.7351     -357.63662      208.69727     -148.93935      1065.6679    
    537000   3291.2599      325183.76      5880.7351     -361.2437       212.28894     -148.95477      1044.6213    
    538000   3184.5999      334618.4       5880.7351     -353.59334      205.40928     -148.18407      1080.0215    
    539000   3103.3654      340788.25      5880.7351     -348.73826      200.16959     -148.56867      1102.2832    
    540000   3131.4589      340073.2       5880.7351     -350.44669      201.98165     -148.46505      1099.7622    
    541000   3146.0861      338735.66      5880.7351     -351.39065      202.92511     -148.46555      1094.8523    
    542000   3222.1995      332197.98      5880.7351     -355.61415      207.83448     -147.77967      1071.5419    
    543000   3086.1237      343594.85      5880.7351     -345.55987      199.05749     -146.50238      1114.651     
    544000   3284.6895      328363.63      5880.7351     -358.64753      211.86514     -146.78239      1058.4653    
    545000   3126.1257      341222.01      5880.7351     -348.76955      201.63764     -147.13191      1105.312     
    546000   3244.6952      331017.81      5880.7351     -356.83117      209.28548     -147.5457       1067.4441    
    547000   3133.3392      339611.89      5880.7351     -348.81085      202.10292     -146.70792      1099.8262    
    548000   3113.6547      343481.72      5880.7351     -346.88792      200.83325     -146.05466      1114.6835    
    549000   3100.3696      343576.69      5880.7351     -346.32097      199.97636     -146.34461      1114.7421    
    550000   3129.4984      341803         5880.7351     -347.59288      201.85519     -145.73769      1108.8388    
    551000   3045.524       348575.45      5880.7351     -342.23017      196.43877     -145.7914       1133.6431    
    552000   3082.9949      344600.55      5880.7351     -345.24318      198.85568     -146.3875       1118.4572    
    553000   3295.6025      328726.76      5880.7351     -358.83551      212.56904     -146.26647      1060.3141    
    554000   3229.9403      334737.32      5880.7351     -353.39133      208.33378     -145.05756      1083.5845    
    555000   3082.3054      346976.58      5880.7351     -343.44543      198.8112      -144.63423      1128.9317    
    556000   3176.8377      339396.63      5880.7351     -350.14768      204.90862     -145.23907      1100.5049    
    557000   3216.8394      336628.07      5880.7351     -352.1561       207.48876     -144.66734      1090.9147    
    558000   3180.9504      339990.32      5880.7351     -349.53785      205.17388     -144.36397      1103.5591    
    559000   3035.398       350952.7       5880.7351     -339.73749      195.78564     -143.95185      1144.2082    
    560000   3218.7779      337256.41      5880.7351     -351.95923      207.61379     -144.34544      1093.5429    
    561000   3154.4999      341466.79      5880.7351     -348.24639      203.46781     -144.77859      1108.5638    
    562000   3069.5297      347677.91      5880.7351     -343.35976      197.98716     -145.3726       1130.7675    
    563000   3111.6119      345962.09      5880.7351     -345.1837       200.7015      -144.4822       1125.36      
    564000   3202.6045      337894.57      5880.7351     -350.09305      206.57059     -143.52246      1096.7082    
    565000   3144.6786      344140.79      5880.7351     -346.2138       202.83432     -143.37948      1119.7778    
    566000   3258.7168      335897.97      5880.7351     -353.44764      210.18988     -143.25776      1089.6445    
    567000   3299.7944      332986.24      5880.7351     -356.5763       212.83942     -143.73688      1078.4779    
    568000   3232.6506      338039.81      5880.7351     -351.53825      208.50859     -143.02966      1097.7341    
    569000   3192.8863      342307.87      5880.7351     -348.39445      205.94376     -142.45069      1113.9789    
    570000   3006.7399      355582.17      5880.7351     -336.25556      193.93716     -142.31839      1162.8341    
    571000   3245.2154      336529.94      5880.7351     -352.66346      209.31903     -143.34443      1091.8774    
    572000   3025.859       354501.62      5880.7351     -337.45344      195.17037     -142.28308      1158.9032    
    573000   3191.307       341587.35      5880.7351     -348.36163      205.84189     -142.51974      1111.2652    
    574000   3174.3511      343937.27      5880.7351     -346.50415      204.74823     -141.75593      1120.6543    
    575000   3096.5068      348689.29      5880.7351     -342.79506      199.7272      -143.06785      1136.7845    
    576000   3208.1914      341426.64      5880.7351     -348.45412      206.93095     -141.52317      1111.6719    
    577000   3158.4654      344246.5       5880.7351     -345.66759      203.72358     -141.94401      1121.6012    
    578000   3195.6633      342788.99      5880.7351     -347.67044      206.12288     -141.54757      1116.6479    
    579000   3197.3692      342186.59      5880.7351     -348.21625      206.23291     -141.98334      1114.0011    
    580000   3281.6763      336180.02      5880.7351     -353.85996      211.67078     -142.18918      1091.7483    
    581000   3190.6595      344700.1       5880.7351     -347.38334      205.80013     -141.58321      1123.627     
    582000   3250.3282      338168.61      5880.7351     -352.03754      209.64881     -142.38874      1098.8478    
    583000   3176.193       343941.97      5880.7351     -346.35376      204.86703     -141.48673      1120.9408    
    584000   3280.9772      336027.05      5880.7351     -353.54858      211.6257      -141.92289      1091.4531    
    585000   3205.4149      343055.18      5880.7351     -347.79611      206.75187     -141.04425      1118.1283    
    586000   3255.7034      337767.48      5880.7351     -351.14809      209.99552     -141.15257      1098.6116    
    587000   3237.2528      342396         5880.7351     -349.55701      208.80544     -140.75157      1116.0015    
    588000   3193.3996      343518.27      5880.7351     -346.99195      205.97687     -141.01508      1119.8572    
    589000   3169.6422      345947.3       5880.7351     -345.59342      204.4445      -141.14893      1128.639     
    590000   3248.299       339475.84      5880.7351     -350.43448      209.51792     -140.91656      1105.1181    
    591000   3356.5338      331829.51      5880.7351     -356.27429      216.49915     -139.77514      1078.194     
    592000   3226.7523      341451.93      5880.7351     -349.60609      208.12815     -141.47795      1111.8099    
    593000   3341.8178      332691.5       5880.7351     -356.18477      215.54997     -140.63481      1080.4982    
    594000   3123.8738      350926.01      5880.7351     -342.17184      201.4924      -140.67944      1147.3827    
    595000   3188.3778      344664.43      5880.7351     -345.95597      205.65296     -140.30301      1124.7762    
    596000   3326.2067      333709.41      5880.7351     -355.18721      214.54303     -140.64418      1084.225     
    597000   3330.6938      334747.53      5880.7351     -355.39426      214.83246     -140.5618       1088.1178    
    598000   3223.2034      342264.33      5880.7351     -348.10156      207.89924     -140.20232      1116.0674    
    599000   3162.9069      347238.93      5880.7351     -345.14228      204.01006     -141.13221      1133.3966    
    600000   3156.5914      348246.73      5880.7351     -344.22773      203.60271     -140.62502      1137.6029    
    601000   3274.8298      338916.52      5880.7351     -351.29823      211.22918     -140.06905      1103.9127    
    602000   3314.2773      336899.22      5880.7351     -353.53884      213.77358     -139.76526      1096.812     
    603000   3260.7099      338766.8       5880.7351     -351.29981      210.31844     -140.98138      1102.4508    
    604000   3296.0097      338096.4       5880.7351     -352.0144       212.5953      -139.4191       1101.5524    
    605000   3165.5309      348291.48      5880.7351     -344.07409      204.17931     -139.89477      1138.4974    
    606000   3292.4568      338237.4       5880.7351     -351.33043      212.36614     -138.9643       1102.5247    
    607000   3353.9588      332430.86      5880.7351     -356.6531       216.33307     -140.32003      1079.8563    
    608000   3302.4686      337669.6       5880.7351     -353.33284      213.01191     -140.32093      1099.084     
    609000   3201.2732      345651.85      5880.7351     -345.36692      206.48472     -138.8822       1129.8213    
    610000   3094.9024      352917.47      5880.7351     -338.73319      199.62372     -139.10947      1156.2623    
    611000   3281.8433      339449.24      5880.7351     -351.06663      211.68156     -139.38507      1106.552     
    612000   3221.4196      343843.5       5880.7351     -346.88878      207.78418     -139.1046       1122.9614    
    613000   3180.8194      348346.72      5880.7351     -344.17646      205.16543     -139.01102      1139.5839    
    614000   3116.7382      351065.8       5880.7351     -341.03469      201.03215     -140.00254      1148.5727    
    615000   3144.1079      349855.87      5880.7351     -342.44255      202.79751     -139.64503      1144.4892    
    616000   3135.9085      350094.61      5880.7351     -341.08836      202.26865     -138.81971      1146.1908    
    617000   3212.4289      344218.23      5880.7351     -347.03422      207.20427     -139.82995      1123.6115    
    618000   3389.0126      331855.84      5880.7351     -358.05974      218.59406     -139.46567      1078.6001    
    619000   3194.5648      345967.38      5880.7351     -345.22878      206.05203     -139.17675      1130.6849    
    620000   3181.0159      346025.53      5880.7351     -345.92379      205.17811     -140.74569      1129.3294    
    621000   3502.4121      321310.76      5880.7351     -365.41791      225.90843     -139.50948      1039.8509    
    622000   3206.8665      345562.34      5880.7351     -345.68614      206.84549     -138.84065      1129.5343    
    623000   3025.1933      358545.41      5880.7351     -334.12136      195.12743     -138.99394      1177.035     
    624000   3209.8794      343971.7       5880.7351     -346.51035      207.03983     -139.47053      1123.0661    
    625000   3203.5048      345677.79      5880.7351     -346.89331      206.62866     -140.26464      1128.5341    
    626000   3200.7091      345638.58      5880.7351     -344.99333      206.44833     -138.545        1130.1098    
    627000   3303.2331      338505.51      5880.7351     -352.87087      213.06122     -139.80965      1102.6635    
    628000   3118.8387      351508.96      5880.7351     -340.75407      201.16763     -139.58644      1150.6154    
    629000   3246.807       340777.55      5880.7351     -349.6909       209.42169     -140.26921      1110.5434    
    630000   3299.2951      336901.72      5880.7351     -352.73147      212.80722     -139.92425      1096.6622    
    631000   3190.4174      345523.39      5880.7351     -345.06521      205.78452     -139.2807       1128.9513    
    632000   3110.0917      351269.28      5880.7351     -340.18692      200.60344     -139.58348      1149.7386    
    633000   3223.2384      343478.28      5880.7351     -347.34602      207.90149     -139.44453      1121.281     
    634000   3233.1848      343167.95      5880.7351     -347.29154      208.54304     -138.74849      1120.838     
    635000   3283.2124      337986.17      5880.7351     -352.14773      211.76987     -140.37786      1100.1891    
    636000   3207.9942      343278.97      5880.7351     -347.26757      206.91823     -140.34934      1119.6446    
    637000   3337.7158      334279.95      5880.7351     -356.00489      215.28538     -140.71951      1086.2438    
    638000   3103.6947      351659.17      5880.7351     -339.8449       200.19083     -139.65407      1151.0991    
    639000   3147.8898      348286.7       5880.7351     -342.50429      203.04145     -139.46284      1138.9118    
    640000   3264.1095      339674.85      5880.7351     -351.6095       210.53771     -141.07179      1105.6933    
    641000   3193.549       345286.39      5880.7351     -345.94154      205.98651     -139.95504      1127.4071    
    642000   3087.1184      353388.28      5880.7351     -339.56204      199.12165     -140.44039      1156.6594    
    643000   3212.3401      343605.77      5880.7351     -347.69544      207.19855     -140.49689      1120.6966    
    644000   3138.1928      349622.4       5880.7351     -342.58879      202.41599     -140.1728       1143.1045    
    645000   3204.3831      343914.76      5880.7351     -347.22879      206.68531     -140.54348      1121.7841    
    646000   3145.0638      348542.83      5880.7351     -343.91335      202.85917     -141.05418      1138.2606    
    647000   3312.2273      334342.47      5880.7351     -354.57023      213.64135     -140.92888      1086.2639    
    648000   3221.4834      342392.83      5880.7351     -348.01713      207.78829     -140.22883      1116.5126    
    649000   3195.793       343327.7       5880.7351     -348.09785      206.13124     -141.96661      1118.2062    
    650000   3086.4172      351619.01      5880.7351     -340.22419      199.07641     -141.14777      1149.458     
    651000   3142.2323      348592.21      5880.7351     -342.62001      202.67654     -139.94348      1139.5525    
    652000   3153.1938      347294.64      5880.7351     -344.26611      203.38356     -140.88254      1133.8508    
    653000   3227.4944      341326.41      5880.7351     -349.24492      208.17601     -141.06891      1111.7582    
    654000   3012.3178      358513.63      5880.7351     -334.96246      194.29695     -140.66552      1175.2467    
    655000   3148.7288      345843.15      5880.7351     -344.5518       203.09557     -141.45623      1127.9495    
    656000   3197.5926      342828.72      5880.7351     -347.92115      206.24732     -141.67383      1116.6675    
    657000   3214.063       341747.89      5880.7351     -348.05587      207.30967     -140.74619      1113.628     
    658000   3264.6614      337494.77      5880.7351     -352.3867       210.57331     -141.81338      1096.9498    
    659000   3179.895       344183.59      5880.7351     -346.84439      205.10581     -141.73858      1121.5757    
    660000   3225.5444      340530.02      5880.7351     -348.01559      208.05023     -139.96536      1109.9387    
    661000   3143.9348      347882.84      5880.7351     -344.21279      202.78635     -141.42644      1135.4659    
    662000   3142.364       345802.35      5880.7351     -344.6646       202.68503     -141.97957      1127.2763    
    663000   3114.6509      347741.88      5880.7351     -343.46484      200.89751     -142.56733      1133.8076    
    664000   3235.7043      338748.63      5880.7351     -350.56498      208.70555     -141.85942      1101.506     
    665000   3097.0939      348546.21      5880.7351     -342.50434      199.76507     -142.73926      1136.5879    
    666000   3259.5685      335252.82      5880.7351     -353.52302      210.24482     -143.27821      1087.256     
    667000   3155.6142      343542.81      5880.7351     -346.00711      203.53968     -142.46743      1118.4949    
[...]
    841000   2891.4834      318183.77      5880.7351     -363.44381      186.50303     -176.94078      990.94206    
    842000   3054.4627      305581.31      5880.7351     -373.60718      197.01532     -176.59185      945.03409    
    843000   2869.2178      318847.24      5880.7351     -362.78008      185.06688     -177.7132       992.6049     
    844000   2990.9545      310298.41      5880.7351     -370.49189      192.91899     -177.5729       961.36702    
    845000   2868.8972      318597.18      5880.7351     -362.0351       185.0462      -176.9889       992.41135    
    846000   2797.6         325887.17      5880.7351     -357.26259      180.44747     -176.81512      1019.3428    
    847000   2848.7545      319695.87      5880.7351     -361.40994      183.74698     -177.66296      995.77003    
    848000   2925.4156      315237.1       5880.7351     -365.67338      188.69168     -176.9817       980.0855     
    849000   2793.6008      323968.85      5880.7351     -358.66824      180.18952     -178.47871      1010.6381    
    850000   2820.2071      322410.4       5880.7351     -359.41203      181.90565     -177.50638      1005.8902    
    851000   2925.6489      313166.78      5880.7351     -367.29305      188.70673     -178.58632      970.88185    
    852000   2941.161       312955.99      5880.7351     -367.07058      189.70727     -177.36331      971.33115    
    853000   2858.5759      319107.27      5880.7351     -362.10848      184.38047     -177.72801      993.54453    
    854000   2813.5492      323128.17      5880.7351     -359.19027      181.47621     -177.71406      1008.3171    
    855000   2824.5743      321047.68      5880.7351     -361.30971      182.18733     -179.12237      999.27237    
    856000   2766.1422      325038.99      5880.7351     -356.46416      178.41842     -178.04574      1014.999     
    857000   2843.513       318333.51      5880.7351     -362.31238      183.4089      -178.90348      989.529      
    858000   2813.3335      321077.2       5880.7351     -360.50704      181.4623      -179.04475      999.45836    
    859000   2857.8799      317363.81      5880.7351     -363.52695      184.33558     -179.19138      985.68186    
    860000   2922.5638      312342.24      5880.7351     -367.83058      188.50774     -179.32284      967.11887    
    861000   2843.2907      318158.09      5880.7351     -363.1509       183.39456     -179.75634      988.03226    
    862000   2890.5354      314071.25      5880.7351     -366.40626      186.44188     -179.96438      972.82363    
    863000   2918.8764      313008.26      5880.7351     -367.40452      188.2699      -179.13462      969.7517     
    864000   2872.9308      315149.95      5880.7351     -365.81751      185.30637     -180.51114      976.23619    
    865000   2839.2106      318659.17      5880.7351     -363.12041      183.13139     -179.98902      989.63879    
    866000   2862.1835      316427.22      5880.7351     -363.44973      184.61316     -178.83657      982.59894    
    867000   2850.3108      316638.45      5880.7351     -363.76564      183.84736     -179.91828      982.29255    
    868000   2843.8223      316386.71      5880.7351     -364.31593      183.42885     -180.88708      980.39973    
    869000   2807.8532      320608.77      5880.7351     -361.23306      181.10881     -180.12425      996.6595     
    870000   2900.0048      312245.43      5880.7351     -367.53524      187.05267     -180.48258      965.60381    
    871000   2843.9984      315727.76      5880.7351     -364.8124       183.44021     -181.37219      977.49597    
    872000   2955.1326      306992.28      5880.7351     -372.21494      190.60846     -181.60649      945.19837    
    873000   2929.6167      310038.15      5880.7351     -369.75897      188.96266     -180.79631      957.18833    
    874000   2861.9834      313846.56      5880.7351     -365.51562      184.60026     -180.91537      971.0479     
    875000   2827.4866      317353.1       5880.7351     -363.28217      182.37518     -180.90699      983.92694    
    876000   2870.9146      312686.26      5880.7351     -365.37981      185.17632     -180.20349      967.50094    
    877000   2802.034       318679.69      5880.7351     -361.29505      180.73347     -180.56158      989.14152    
    878000   2813.6674      318535.11      5880.7351     -362.99355      181.48383     -181.50972      987.66272    
    879000   2797.9204      319076.14      5880.7351     -360.75044      180.46814     -180.2823       990.87599    
    880000   2862.9843      313399.64      5880.7351     -365.98172      184.66481     -181.3169       969.00597    
    881000   2769.3892      320404.55      5880.7351     -360.21347      178.62785     -181.58562      994.44854    
    882000   2858.3636      313674.69      5880.7351     -365.76659      184.36677     -181.39981      969.93262    
    883000   2959.0591      305785.52      5880.7351     -372.59518      190.86172     -181.73346      940.64204    
    884000   2732.1893      324927.23      5880.7351     -357.35679      176.22843     -181.12836      1011.5061    
    885000   2922.925       309063.94      5880.7351     -370.3076       188.53104     -181.77656      952.63227    
    886000   2835.2078      315267.38      5880.7351     -364.91782      182.87321     -182.04461      975.13375    
    887000   2856.8988      313307.06      5880.7351     -366.2234       184.2723      -181.95111      968.03194    
    888000   2899.6894      309395.44      5880.7351     -368.75189      187.03232     -181.71957      953.90601    
    889000   2772.4127      319915.71      5880.7351     -360.81228      178.82287     -181.98941      992.25047    
    890000   2725.6206      322439.25      5880.7351     -358.13945      175.80474     -182.33471      1001.1677    
    891000   2794.4582      319329.01      5880.7351     -362.00901      180.24483     -181.76418      990.32223    
    892000   2834.4153      315632.92      5880.7351     -364.77206      182.82209     -181.94997      976.57009    
    893000   2807.6677      316642.56      5880.7351     -363.65587      181.09684     -182.55903      979.66686    
    894000   2983.2283      303532.74      5880.7351     -374.65759      192.42065     -182.23693      931.86981    
    895000   3016.2907      300650.24      5880.7351     -376.84872      194.5532      -182.29552      921.23111    
    896000   2821.0097      316197.11      5880.7351     -363.92476      181.95742     -181.96734      978.62357    
    897000   2760.8028      321922.69      5880.7351     -359.96799      178.07402     -181.89396      999.71247    
    898000   2720.8363      323852.89      5880.7351     -357.81915      175.49615     -182.323        1006.3682    
    899000   2911.8222      308752.31      5880.7351     -370.03157      187.8149      -182.21667      951.04835    
    900000   2819.6713      315466.68      5880.7351     -364.04315      181.87109     -182.17206      975.7378     
    901000   2874.0781      312356.23      5880.7351     -368.20459      185.38037     -182.82422      963.66885    
    902000   2855.5503      313187.79      5880.7351     -366.41515      184.18531     -182.22984      967.31543    
    903000   2849.6076      314306.34      5880.7351     -366.23551      183.80201     -182.4335       971.21739    
    904000   2823.2007      315781.32      5880.7351     -364.78221      182.09874     -182.68347      976.38129    
    905000   2798.4688      317492.35      5880.7351     -362.57528      180.50351     -182.07177      983.27324    
    906000   2805.3368      316093.29      5880.7351     -363.27322      180.94651     -182.32672      977.8831     
    907000   2825.1047      315034.36      5880.7351     -365.33799      182.22155     -183.11644      973.20663    
    908000   2822.6903      315517.35      5880.7351     -364.62355      182.06582     -182.55773      975.53812    
    909000   2795.3928      317616.25      5880.7351     -363.032        180.3051      -182.7269       983.07289    
    910000   2885.2555      309460.1       5880.7351     -368.8992       186.10132     -182.79787      953.06506    
    911000   2733.2587      321826.08      5880.7351     -358.52463      176.29741     -182.22722      999.02462    
    912000   2795.8886      317282.63      5880.7351     -362.85407      180.33709     -182.51698      982.05827    
    913000   2824.5389      316231.87      5880.7351     -363.58579      182.18505     -181.40074      979.31772    
    914000   2881.8667      310086.88      5880.7351     -368.96617      185.88274     -183.08343      955.08005    
    915000   2774.6421      319163.32      5880.7351     -361.89523      178.96667     -182.92856      988.54971    
    916000   2861.4685      312786.14      5880.7351     -367.08496      184.56704     -182.51792      965.55314    
    917000   2816.4485      314453.53      5880.7351     -364.76587      181.66322     -183.10266      971.08849    
    918000   2859.0223      312207.87      5880.7351     -367.51695      184.40926     -183.10769      962.84084    
    919000   2884.7706      310065.75      5880.7351     -368.78541      186.07005     -182.71536      955.37057    
    920000   2723.9321      322760.21      5880.7351     -357.37157      175.69583     -181.67574      1003.0048    
    921000   2920.5585      307825.42      5880.7351     -371.12639      188.3784      -182.74799      947.11489    
    922000   2800.8196      315510.14      5880.7351     -364.26711      180.65514     -183.61197      974.45743    
    923000   2891.5632      309787.08      5880.7351     -369.85942      186.50818     -183.35125      953.71185    
    924000   2835.1119      313875.55      5880.7351     -365.83427      182.86702     -182.96725      969.10245    
    925000   2899.9372      309985.15      5880.7351     -369.65583      187.04831     -182.60752      955.18257    
    926000   2694.4028      323118.52      5880.7351     -357.41977      173.79117     -183.62859      1002.3671    
    927000   2861.8705      312149.14      5880.7351     -367.02013      184.59297     -182.42716      963.30579    
    928000   2915.5838      309046.34      5880.7351     -370.07955      188.05752     -182.02202      952.3222     
    929000   2885.2388      311269.97      5880.7351     -368.97558      186.10025     -182.87533      959.63067    
    930000   2829.8902      313918.48      5880.7351     -365.81974      182.53022     -183.28952      968.93774    
    931000   2743.4774      320944.87      5880.7351     -360.75521      176.95652     -183.79869      994.21871    
    932000   2957.4657      304952.43      5880.7351     -373.2491       190.75894     -182.49016      936.82752    
    933000   2816.6254      315418.35      5880.7351     -364.53219      181.67463     -182.85756      974.87491    
    934000   2847.8765      312408.81      5880.7351     -367.3222       183.69035     -183.63185      963.05423    
    935000   2815.5839      314724.5       5880.7351     -364.92955      181.60745     -183.3221       971.86364    
    936000   2836.5708      314624.3       5880.7351     -365.27363      182.96112     -182.31251      972.50545    
    937000   2876.5574      312413.48      5880.7351     -368.13116      185.54029     -182.59087      964.11232    
    938000   2731.7966      323108.04      5880.7351     -358.69827      176.2031      -182.49517      1003.462     
    939000   2925.7325      308411.11      5880.7351     -370.95835      188.71212     -182.24622      949.7664     
    940000   2798.3789      316234.03      5880.7351     -363.28587      180.49771     -182.78815      977.93824    
    941000   2811.4646      316265.96      5880.7351     -363.33609      181.34175     -181.99433      978.84927    
    942000   2853.7133      313812.26      5880.7351     -365.99575      184.06683     -181.92892      969.90845    
    943000   2928.093       308438.64      5880.7351     -370.00821      188.86438     -181.14384      950.96986    
    944000   2899.4436      309422.07      5880.7351     -369.06317      187.01647     -182.04671      953.67662    
    945000   2865.9693      311261.37      5880.7351     -367.57554      184.85735     -182.71819      959.75625    
    946000   2851.5603      313811.38      5880.7351     -366.03697      183.92795     -182.10901      969.72514    
    947000   2801.0866      318343.89      5880.7351     -362.58904      180.67236     -181.91668      986.5539     
    948000   2869.7174      312689.49      5880.7351     -367.2969       185.0991      -182.19779      965.51851    
    949000   2959.8145      305833.56      5880.7351     -372.99102      190.91044     -182.08058      940.47124    
    950000   2765.3252      319866.77      5880.7351     -360.15605      178.36572     -181.79032      992.26992    
    951000   2870.5102      311920.43      5880.7351     -367.7727       185.15024     -182.62247      962.27101    
    952000   2766.4671      322287.51      5880.7351     -359.69094      178.43938     -181.25157      1001.6939    
    953000   2758.876       321959.22      5880.7351     -359.9894       177.94974     -182.03965      999.70087    
    954000   2832.521       316070.92      5880.7351     -364.36177      182.69991     -181.66186      978.46585    
    955000   2935.4397      307334.84      5880.7351     -370.25516      189.33824     -180.91692      947.1453     
    956000   2851.2294      315445.63      5880.7351     -365.44302      183.90661     -181.53641      976.29621    
    957000   2797.1226      318250         5880.7351     -362.96976      180.41668     -182.55307      985.57287    
    958000   2930.2677      308245.21      5880.7351     -371.46389      189.00464     -182.45924      948.94447    
    959000   2885.707       311271.78      5880.7351     -368.36595      186.13044     -182.23551      960.27713    
    960000   2834.9942      316613.64      5880.7351     -363.11161      182.85943     -180.25218      981.86757    
    961000   2948.2549      307343.48      5880.7351     -371.19815      190.16483     -181.03331      947.06064    
    962000   2863.0897      314250.84      5880.7351     -365.11207      184.67161     -180.44045      973.00671    
    963000   2817.593       317595.13      5880.7351     -363.3559       181.73704     -181.61886      984.1034     
    964000   2848.4545      314575.03      5880.7351     -365.31513      183.72763     -181.5875       973.04959    
    965000   2765.0526      323380.05      5880.7351     -358.75841      178.34814     -180.41027      1006.5454    
    966000   2861.2707      315785.23      5880.7351     -364.58631      184.55429     -180.03202      979.04709    
    967000   2849.6533      315005.49      5880.7351     -364.42239      183.80495     -180.61744      975.59964    
    968000   2824.8938      317834.63      5880.7351     -363.24965      182.20794     -181.0417       985.55966    
    969000   2926.1046      309770.07      5880.7351     -368.94272      188.73612     -180.2066       956.79405    
    970000   2807.1921      318729.64      5880.7351     -362.26216      181.06617     -181.19599      988.69048    
    971000   2857.1065      315498.9       5880.7351     -363.88639      184.28569     -179.6007       978.42742    
    972000   2816.1405      319642.76      5880.7351     -362.01736      181.64335     -180.37401      992.86403    
    973000   2816.7696      318507.88      5880.7351     -361.47928      181.68393     -179.79535      989.27713    
    974000   2823.5307      318852.63      5880.7351     -361.68072      182.12002     -179.5607       990.77719    
    975000   2781.9221      322537.1       5880.7351     -359.06191      179.43624     -179.62568      1004.2359    
    976000   2936.427       311367.44      5880.7351     -369.20308      189.40192     -179.80115      963.06261    
    977000   2870.4111      315098.88      5880.7351     -365.62782      185.14385     -180.48398      976.07588    
    978000   2948.5626      309579.88      5880.7351     -370.11524      190.18468     -179.93055      956.37203    
    979000   2931.0932      311165.49      5880.7351     -368.60267      189.0579      -179.54478      962.57774    
    980000   2898.3118      313850.37      5880.7351     -366.40809      186.94346     -179.46462      972.51262    
    981000   2885.3474      315027.97      5880.7351     -365.11409      186.10725     -179.00683      977.29276    
    982000   2822.5684      319617.97      5880.7351     -361.58742      182.05796     -179.52947      993.61756    
    983000   2829.2243      319582.03      5880.7351     -361.65386      182.48727     -179.16659      993.84855    
    984000   2803.0498      321832.05      5880.7351     -360.84161      180.79899     -180.04262      1001.2311    
    985000   2828.6926      320681.55      5880.7351     -361.85787      182.45297     -179.4049       997.64598    
    986000   2860.1697      317428.39      5880.7351     -362.80747      184.48327     -178.32421      986.78605    
    987000   2910.3642      313533.33      5880.7351     -366.00481      187.72085     -178.28395      972.52963    
    988000   2721.5758      329333.82      5880.7351     -354.58283      175.54385     -179.03898      1029.7698    
    989000   2953.6594      310479.03      5880.7351     -369.32112      190.51343     -178.80769      960.79518    
    990000   2938.7986      312535.79      5880.7351     -367.33972      189.5549      -177.78482      969.3673     
    991000   2971.5108      309200.51      5880.7351     -370.63619      191.66486     -178.97133      955.93877    
    992000   2966.5884      310708.8       5880.7351     -368.48618      191.34736     -177.13882      963.30743    
    993000   2929.3398      314148.89      5880.7351     -366.17809      188.9448      -177.23329      975.83967    
    994000   2806.7501      323632.06      5880.7351     -358.62213      181.03766     -177.58447      1010.2961    
    995000   2919.634       313510.8       5880.7351     -366.95117      188.31877     -178.6324       972.09848    
    996000   2885.569       316602.54      5880.7351     -363.43879      186.12155     -177.31725      984.76175    
    997000   2908.4541      316033.4       5880.7351     -364.3401       187.59765     -176.74245      983.24756    
    998000   2884.2877      318123         5880.7351     -363.53374      186.0389      -177.49484      990.16496    
    999000   2932.5084      315322.65      5880.7351     -365.9149       189.14917     -176.76573      980.61549    
   1000000   2935.7         315053.46      5880.7351     -365.77068      189.35503     -176.41565      979.9775     
Loop time of 103.833 on 8 procs for 1000000 steps with 500 atoms

Performance: 832.105 ns/day, 0.029 hours/ns, 9630.846 timesteps/s
60.1% CPU use with 8 MPI tasks x 1 OpenMP threads

MPI task timing breakdown:
Section |  min time  |  avg time  |  max time  |%varavg| %total
---------------------------------------------------------------
Pair    | 8.8841     | 8.9932     | 9.0884     |   2.3 |  8.66
Neigh   | 3.7186     | 3.7517     | 3.7797     |   1.0 |  3.61
Comm    | 65.845     | 68.706     | 71.639     |  20.7 | 66.17
Output  | 0.99159    | 1.0789     | 1.1788     |   5.3 |  1.04
Modify  | 16.047     | 18.915     | 21.756     |  38.2 | 18.22
Other   |            | 2.388      |            |       |  2.30

Nlocal:           62.5 ave          67 max          55 min
Histogram: 1 0 0 0 1 0 3 1 1 1
Nghost:        729.125 ave         750 max         714 min
Histogram: 2 0 0 2 1 2 0 0 0 1
Neighs:           1926 ave        2053 max        1692 min
Histogram: 1 0 0 0 1 1 1 1 1 2
FullNghs:         3852 ave        4119 max        3353 min
Histogram: 1 0 0 0 1 0 2 1 1 2

Total # of neighbors = 30816
Ave neighs/atom = 61.632
Neighbor list builds = 50000
Dangerous builds not checked





Total wall time: 0:01:43
