LAMMPS (2 Jun 2022)
OMP_NUM_THREADS environment is not set. Defaulting to 1 thread. (src/comm.cpp:98)
  using 1 OpenMP thread(s) per MPI task
#melt Cu-Ni using eam/alloy potential

units metal

lattice  fcc 3.61
Lattice spacing in x,y,z = 3.61 3.61 3.61
region   box block 0 5 0 5 0 5

create_box  2 box
Created orthogonal box = (0 0 0) to (18.05 18.05 18.05)
  2 by 2 by 2 MPI processor grid
create_atoms  1 box
Created 500 atoms
  using lattice units in orthogonal box = (0 0 0) to (18.05 18.05 18.05)
  create_atoms CPU = 0.000 seconds
group 1 type 1 2
500 atoms in group 1

set group 1 type/fraction 2 0.1 100000
Setting atom values ...
  64 settings made for type/fraction
mass  1 63.54
mass  2 58.69
velocity all create 2000  2000

pair_style  eam/alloy
pair_coeff  * * CuNi.eam.alloy Cu Ni
Reading eam/alloy potential file CuNi.eam.alloy with DATE: 2014-07-11
neighbor    2.0 bin
neigh_modify every 20 delay 0 check no

fix 1 all nvt temp 1000 6000 100

thermo  1000
thermo_style  custom   step temp press vol pe ke etotal enthalpy
thermo_modify flush yes

compute  myMSD all msd
fix      2 all ave/time 1 10 10 c_myMSD[4] file msd.txt

dump 1 all custom 1000  dump.lammpstrj  id type x y z

run 1000000
Neighbor list info ...
  update every 20 steps, delay 0 steps, check no
  max neighbors/atom: 2000, page size: 100000
  master list distance cutoff = 8.3943324
  ghost atom cutoff = 8.3943324
  binsize = 4.1971662, bins = 5 5 5
  1 neighbor lists, perpetual/occasional/extra = 1 0 0
  (1) pair eam/alloy, perpetual
      attributes: half, newton on
      pair build: half/bin/atomonly/newton
      stencil: half/bin/3d
      bin: standard
Per MPI rank memory allocation (min/avg/max) = 4.498 | 4.498 | 4.498 Mbytes
   Step          Temp          Press          Volume         PotEng         KinEng         TotEng        Enthalpy   
         0   2000.1613      24281.542      5880.7351     -1821.4165      129.01203     -1692.4044     -1603.2799    
      1000   975.17296      70492.765      5880.7351     -1755.2856      62.899448     -1692.3861     -1433.6448    
      2000   1009.9415      68411.277      5880.7351     -1757.526       65.14205      -1692.384      -1441.2827    
      3000   996.70982      69158.019      5880.7351     -1756.6739      64.288593     -1692.3853     -1438.5431    
      4000   1026.541       67883.133      5880.7351     -1758.5963      66.212731     -1692.3835     -1443.2208    
      5000   1014.4329      68035.947      5880.7351     -1757.8151      65.431745     -1692.3834     -1442.6597    
      6000   1001.8534      68752.741      5880.7351     -1757.0035      64.620357     -1692.3831     -1440.0285    
      7000   977.29681      69492.996      5880.7351     -1755.4179      63.036438     -1692.3815     -1437.3098    
      8000   1007.8696      68807.378      5880.7351     -1757.3904      65.008408     -1692.382      -1439.8269    
      9000   993.39695      69154.202      5880.7351     -1756.4542      64.07491      -1692.3793     -1438.5511    
     10000   992.47763      69249.231      5880.7351     -1756.395       64.015613     -1692.3793     -1438.2024    
     11000   1036.8093      67229.638      5880.7351     -1759.2507      66.875043     -1692.3757     -1445.6116    
     12000   992.46742      69022.958      5880.7351     -1756.3875      64.014955     -1692.3725     -1439.026     
     13000   1021.3736      67676.292      5880.7351     -1758.2473      65.879426     -1692.3679     -1443.9643    
     14000   1002.3488      68498.339      5880.7351     -1757.0168      64.652312     -1692.3645     -1440.9437    
     15000   1025.0972      67476.66       5880.7351     -1758.4767      66.119605     -1692.3571     -1444.6862    
     16000   1025.9454      67266.162      5880.7351     -1758.5235      66.174313     -1692.3492     -1445.451     
     17000   988.06774      68854.761      5880.7351     -1756.0721      63.731172     -1692.3409     -1439.6118    
     18000   993.69894      69012.051      5880.7351     -1756.4269      64.094389     -1692.3325     -1439.0261    
     19000   999.75491      68522.558      5880.7351     -1756.8066      64.485004     -1692.3216     -1440.8119    
     20000   1017.6231      67605.411      5880.7351     -1757.9505      65.637513     -1692.313      -1444.1696    
     21000   996.16887      69083.948      5880.7351     -1756.5546      64.253701     -1692.3009     -1438.7305    
     22000   1020.0883      68139.623      5880.7351     -1758.0863      65.796522     -1692.2897     -1442.1855    
     23000   1023.9473      67977.437      5880.7351     -1758.3211      66.04543      -1692.2757     -1442.7668    
     24000   1031.7226      67019.059      5880.7351     -1758.8098      66.546949     -1692.2629     -1446.2717    
     25000   1006.3633      68688.385      5880.7351     -1757.1552      64.911248     -1692.244      -1440.1256    
     26000   980.58811      69803.637      5880.7351     -1755.4756      63.24873      -1692.2269     -1436.015     
     27000   1011.1104      67404.392      5880.7351     -1757.4266      65.217445     -1692.2092     -1444.8036    
     28000   997.59885      69147.314      5880.7351     -1756.5339      64.345936     -1692.188      -1438.3851    
     29000   980.59436      69587.117      5880.7351     -1755.4147      63.249133     -1692.1656     -1436.7484    
     30000   1048.0707      66925.765      5880.7351     -1759.7443      67.601412     -1692.1429     -1446.4941    
     31000   1032.5822      67264.772      5880.7351     -1758.7164      66.602393     -1692.114      -1445.2209    
     32000   1014.9377      68138.472      5880.7351     -1757.5479      65.464304     -1692.0835     -1441.9836    
     33000   1029.953       67567.883      5880.7351     -1758.4883      66.432804     -1692.0555     -1444.0498    
     34000   973.16744      70721.264      5880.7351     -1754.7921      62.770091     -1692.022      -1432.442     
     35000   994.48775      68824.118      5880.7351     -1756.1316      64.145268     -1691.9864     -1439.3697    
     36000   1036.3113      67408.711      5880.7351     -1758.7902      66.842923     -1691.9473     -1444.5259    
     37000   998.33571      68847.198      5880.7351     -1756.3046      64.393464     -1691.9111     -1439.2098    
     38000   1076.0522      66075.798      5880.7351     -1761.276       69.406243     -1691.8698     -1449.3408    
     39000   996.25166      68769.341      5880.7351     -1756.084       64.259041     -1691.825      -1439.4094    
     40000   1029.6477      67537.692      5880.7351     -1758.1932      66.413114     -1691.7801     -1443.8853    
     41000   1001.6115      68465.394      5880.7351     -1756.3328      64.604759     -1691.728      -1440.4281    
     42000   969.87941      70893.195      5880.7351     -1754.2377      62.55801      -1691.6797     -1431.4686    
     43000   986.17043      70035.803      5880.7351     -1755.2387      63.608794     -1691.6299     -1434.5658    
     44000   1019.8793      68331.592      5880.7351     -1757.3614      65.783047     -1691.5784     -1440.7696    
     45000   1002.4031      69230.238      5880.7351     -1756.1753      64.655812     -1691.5195     -1437.4123    
     46000   1018.9101      68902.428      5880.7351     -1757.1802      65.72053      -1691.4596     -1438.5556    
     47000   1063.3493      66317.06       5880.7351     -1759.9901      68.586895     -1691.4032     -1447.9886    
     48000   1005.4635      69718.454      5880.7351     -1756.1903      64.853212     -1691.337      -1435.4378    
     49000   978.82541      70564.527      5880.7351     -1754.4087      63.135034     -1691.2736     -1432.2689    
     50000   1016.1993      68901.131      5880.7351     -1756.7446      65.545678     -1691.1989     -1438.2996    
     51000   1047.3733      67677.904      5880.7351     -1758.6854      67.556428     -1691.129      -1442.7195    
     52000   1032.289       68268.839      5880.7351     -1757.6411      66.583478     -1691.0576     -1440.4791    
     53000   1025.0156      68809.458      5880.7351     -1757.0937      66.114338     -1690.9793     -1438.4165    
     54000   1015.832       68940.052      5880.7351     -1756.4219      65.521992     -1690.8999     -1437.8577    
     55000   1012.9397      70046.389      5880.7351     -1756.1533      65.335433     -1690.8179     -1433.715     
     56000   982.60768      71318.203      5880.7351     -1754.1128      63.378993     -1690.7338     -1428.9628    
     57000   977.19068      71057.027      5880.7351     -1753.6754      63.029592     -1690.6458     -1429.8334    
     58000   1047.2925      68040.453      5880.7351     -1758.108       67.551214     -1690.5568     -1440.8166    
     59000   1065.4845      67999.813      5880.7351     -1759.1878      68.724613     -1690.4632     -1440.8721    
     60000   1046.8899      68548.393      5880.7351     -1757.8917      67.525249     -1690.3664     -1438.7619    
     61000   1035.318       69263.778      5880.7351     -1757.0455      66.778852     -1690.2667     -1436.0363    
     62000   991.17309      71185.502      5880.7351     -1754.0951      63.93147      -1690.1636     -1428.8796    
     63000   1015.9792      69549.331      5880.7351     -1755.5915      65.531487     -1690.06       -1434.7815    
     64000   960.6362       72703.718      5880.7351     -1751.9166      61.961815     -1689.9548     -1423.0983    
     65000   1037.3683      69288.204      5880.7351     -1756.7589      66.911096     -1689.8478     -1435.5278    
     66000   1006.1129      70881.443      5880.7351     -1754.6329      64.895097     -1689.7378     -1429.5698    
     67000   1060.9739      68872.683      5880.7351     -1758.0618      68.433678     -1689.6281     -1436.8332    
     68000   1043.0482      69127.02       5880.7351     -1756.7932      67.277456     -1689.5158     -1435.7874    
     69000   1041.3945      69688.27       5880.7351     -1756.5716      67.170794     -1689.4008     -1433.6123    
     70000   955.5627       73262.29       5880.7351     -1750.9112      61.63457      -1689.2767     -1420.3699    
     71000   972.98355      72469.025      5880.7351     -1751.9187      62.75823      -1689.1604     -1423.1653    
     72000   1057.0858      68609.183      5880.7351     -1757.2241      68.182892     -1689.0412     -1437.2135    
     73000   1019.1692      70752.609      5880.7351     -1754.6571      65.737241     -1688.9199     -1429.2248    
     74000   1029.2645      70185.624      5880.7351     -1755.1823      66.388394     -1688.7939     -1431.1799    
     75000   1027.4054      70812.567      5880.7351     -1754.9389      66.268486     -1688.6705     -1428.7553    
     76000   1018.9797      70559.871      5880.7351     -1754.2716      65.725018     -1688.5466     -1429.559     
     77000   1072.7635      68687.602      5880.7351     -1757.6145      69.194116     -1688.4204     -1436.3048    
     78000   1022.2922      71144.655      5880.7351     -1754.2312      65.938679     -1688.2925     -1427.1584    
     79000   1052.1666      69972.092      5880.7351     -1756.0332      67.865601     -1688.1676     -1431.3374    
     80000   1042.9777      70087.905      5880.7351     -1755.3122      67.27291      -1688.0393     -1430.784     
     81000   1042.3193      70722.916      5880.7351     -1755.1435      67.230441     -1687.9131     -1428.327     
     82000   1044.826       70397.177      5880.7351     -1755.1782      67.392127     -1687.7861     -1429.3956    
     83000   1033.549       71963.507      5880.7351     -1754.3209      66.664752     -1687.6562     -1423.5165    
     84000   1026.0769      71673.564      5880.7351     -1753.7179      66.182794     -1687.5351     -1424.4597    
     85000   1066.8327      70024.239      5880.7351     -1756.2237      68.811579     -1687.4121     -1430.3905    
     86000   1043.6789      70977.142      5880.7351     -1754.6026      67.318138     -1687.2845     -1426.7652    
     87000   1069.8693      70469.872      5880.7351     -1756.1671      69.007442     -1687.1597     -1428.5024    
     88000   1029.4754      71672.615      5880.7351     -1753.435       66.401999     -1687.033      -1423.9611    
     89000   1040.7398      71922.948      5880.7351     -1754.0411      67.128565     -1686.9125     -1422.9217    
     90000   1003.2946      72810.177      5880.7351     -1751.5017      64.713317     -1686.7884     -1419.5411    
     91000   1052.4961      70884.692      5880.7351     -1754.5522      67.886852     -1686.6654     -1426.4855    
     92000   1050.0364      71559.472      5880.7351     -1754.27        67.728199     -1686.5418     -1423.8851    
     93000   1050.8857      71479.729      5880.7351     -1754.2034      67.782983     -1686.4204     -1424.0565    
     94000   1056.8577      71530.329      5880.7351     -1754.4695      68.168182     -1686.3013     -1423.7516    
     95000   1042.0947      71571.088      5880.7351     -1753.4028      67.215956     -1686.1868     -1423.4875    
     96000   1154.6403      67213.441      5880.7351     -1760.5474      74.475236     -1686.0722     -1439.3675    
     97000   1073.7351      70864.999      5880.7351     -1755.2113      69.256786     -1685.9545     -1425.8469    
     98000   1019.7849      73482.981      5880.7351     -1751.6135      65.776957     -1685.8366     -1416.1198    
     99000   1087.8673      70767.485      5880.7351     -1755.889       70.168327     -1685.7207     -1425.971     
    100000   1034.1148      72799.731      5880.7351     -1752.3044      66.701245     -1685.6032     -1418.3942    
    101000   1043.7233      72515.173      5880.7351     -1752.8153      67.321001     -1685.4943     -1419.3298    
    102000   1098.1709      70759.155      5880.7351     -1756.2163      70.832914     -1685.3834     -1425.6643    
    103000   1091.5108      70503.276      5880.7351     -1755.6702      70.403334     -1685.2669     -1426.487     
    104000   1099.4215      70749.83       5880.7351     -1756.0646      70.913582     -1685.151      -1425.4662    
    105000   1026.9708      73881.745      5880.7351     -1751.2817      66.240454     -1685.0412     -1413.8608    
    106000   1072.7989      71908.144      5880.7351     -1754.1257      69.196403     -1684.9293     -1420.9929    
    107000   1071.4581      72535.06       5880.7351     -1753.9312      69.109918     -1684.8213     -1418.5837    
    108000   1068.0161      72359.77       5880.7351     -1753.5994      68.887908     -1684.7115     -1419.1174    
    109000   1056.1904      73265.309      5880.7351     -1752.7285      68.125142     -1684.6034     -1415.6855    
    110000   1073.1888      72332.278      5880.7351     -1753.7117      69.221549     -1684.4901     -1418.9969    
    111000   1065.0918      72891.526      5880.7351     -1753.0775      68.699288     -1684.3782     -1416.8323    
    112000   1008.1656      75878.098      5880.7351     -1749.2906      65.027502     -1684.2631     -1405.7551    
    113000   1043.5415      73807.657      5880.7351     -1751.462       67.309278     -1684.1528     -1413.2442    
    114000   1090.3572      72021.818      5880.7351     -1754.3736      70.328927     -1684.0447     -1419.6911    
    115000   1042.3794      74221.455      5880.7351     -1751.169       67.234317     -1683.9347     -1411.5073    
    116000   1096.9261      71890.133      5880.7351     -1754.5767      70.752626     -1683.8241     -1419.9537    
    117000   1048.4589      73978.788      5880.7351     -1751.3361      67.626453     -1683.7096     -1412.173     
    118000   1095.2506      71948.119      5880.7351     -1754.243       70.644555     -1683.5984     -1419.5153    
    119000   1062.1679      73317.146      5880.7351     -1751.9922      68.510695     -1683.4815     -1414.3734    
    120000   1043.261       74661.879      5880.7351     -1750.6566      67.291184     -1683.3654     -1409.3215    
    121000   1089.1393      72721.473      5880.7351     -1753.5016      70.250367     -1683.2512     -1416.3295    
    122000   1085.4216      73267.074      5880.7351     -1753.1456      70.010574     -1683.1351     -1414.2107    
    123000   1028.5651      75566.83       5880.7351     -1749.3607      66.343286     -1683.0174     -1405.6519    
    124000   1067.4721      73388.854      5880.7351     -1751.7493      68.852819     -1682.8965     -1413.5252    
    125000   1111.2407      71627.47       5880.7351     -1754.4563      71.675927     -1682.7804     -1419.8741    
    126000   1093.4071      72617.397      5880.7351     -1753.1848      70.525649     -1682.6592     -1416.1194    
    127000   1064.0485      74199.447      5880.7351     -1751.1694      68.631993     -1682.5374     -1410.1909    
    128000   1119.044       72236.786      5880.7351     -1754.5911      72.179248     -1682.4119     -1417.2692    
    129000   1049.6177      75159.937      5880.7351     -1749.9833      67.701197     -1682.2821     -1406.4101    
    130000   1033.6084      76010.734      5880.7351     -1748.8225      66.668579     -1682.1539     -1403.1591    
    131000   1113.9521      72306.702      5880.7351     -1753.8774      71.850817     -1682.0265     -1416.6272    
    132000   1058.1683      74587.983      5880.7351     -1750.1484      68.252714     -1681.8957     -1408.123     
    133000   1106.8592      72882.628      5880.7351     -1753.1593      71.393319     -1681.766      -1414.2527    
    134000   1094.3098      73189.736      5880.7351     -1752.2155      70.583869     -1681.6317     -1412.9912    
    135000   1048.7976      75166.069      5880.7351     -1749.1432      67.648299     -1681.4949     -1405.6003    
    136000   1052.8648      75423.747      5880.7351     -1749.2661      67.910633     -1681.3555     -1404.5152    
    137000   1122.4457      72746.81       5880.7351     -1753.6171      72.398661     -1681.2184     -1414.2037    
    138000   1095.582       73956.45       5880.7351     -1751.743       70.665932     -1681.0771     -1409.6224    
    139000   1047.9516      76063.869      5880.7351     -1748.5284      67.593731     -1680.9346     -1401.7447    
    140000   1094.2473      74026.562      5880.7351     -1751.3714      70.579838     -1680.7915     -1409.0795    
    141000   1104.0838      74202.224      5880.7351     -1751.8621      71.214303     -1680.6478     -1408.291     
    142000   1152.4408      72357.433      5880.7351     -1754.8311      74.33337      -1680.4978     -1414.9122    
    143000   1077.2352      75655.734      5880.7351     -1749.8305      69.482543     -1680.348      -1402.6561    
    144000   1099.9976      74842.402      5880.7351     -1751.1506      70.950739     -1680.1999     -1405.4934    
    145000   1172.0889      71331.124      5880.7351     -1755.6524      75.600683     -1680.0518     -1418.2333    
    146000   1091.8935      75050.02       5880.7351     -1750.3235      70.428019     -1679.8955     -1404.4269    
    147000   1118.3469      73709.779      5880.7351     -1751.8748      72.13428      -1679.7406     -1409.1913    
    148000   1082.2711      76384.436      5880.7351     -1749.395       69.807367     -1679.5876     -1399.2211    
    149000   1082.5499      75945.845      5880.7351     -1749.253       69.825347     -1679.4276     -1400.6709    
    150000   1045.1039      78173.818      5880.7351     -1746.6786      67.410052     -1679.2685     -1392.3342    
    151000   1071.2229      76567.296      5880.7351     -1748.2034      69.094746     -1679.1086     -1398.0709    
    152000   1138.3787      73976.858      5880.7351     -1752.3687      73.42635      -1678.9423     -1407.4128    
    153000   1104.4208      75828.453      5880.7351     -1750.0141      71.236037     -1678.7781     -1400.4523    
    154000   1115.9943      75338.281      5880.7351     -1750.5956      71.982541     -1678.6131     -1402.0864    
    155000   1126.6418      75173.211      5880.7351     -1751.1106      72.669312     -1678.4413     -1402.5206    
    156000   1151.4314      74227.884      5880.7351     -1752.5406      74.268259     -1678.2724     -1405.8214    
    157000   1095.4874      76627.108      5880.7351     -1748.7635      70.659826     -1678.1037     -1396.8465    
    158000   1098.9051      76768.758      5880.7351     -1748.8108      70.880271     -1677.9305     -1396.1534    
    159000   1126.2481      75493.759      5880.7351     -1750.406       72.643914     -1677.7621     -1400.6648    
    160000   1090.3785      76911.466      5880.7351     -1747.9215      70.330296     -1677.5912     -1395.2903    
    161000   1141.5611      75059.987      5880.7351     -1751.049       73.631617     -1677.4174     -1401.9122    
    162000   1154.0091      74897.155      5880.7351     -1751.6767      74.434522     -1677.2422     -1402.3347    
    163000   1136.9907      75824.743      5880.7351     -1750.4052      73.336821     -1677.0684     -1398.7562    
    164000   1149.6693      75199.647      5880.7351     -1751.041       74.154602     -1676.8864     -1400.8686    
    165000   1125.1536      76459.509      5880.7351     -1749.2838      72.573324     -1676.7105     -1396.0684    
    166000   1140.9102      75985.211      5880.7351     -1750.1201      73.589634     -1676.5304     -1397.6293    
    167000   1124.0912      77029.447      5880.7351     -1748.8569      72.504798     -1676.3521     -1393.6181    
    168000   1224.5435      73056.433      5880.7351     -1755.1553      78.984051     -1676.1712     -1408.0201    
    169000   1199.8472      73846.627      5880.7351     -1753.3811      77.391119     -1675.99       -1404.9384    
    170000   1173.1215      75066.856      5880.7351     -1751.4777      75.667292     -1675.8104     -1400.2801    
    171000   1100.6373      78935.917      5880.7351     -1746.6135      70.991997     -1675.6215     -1385.8899    
    172000   1080.2577      79671.051      5880.7351     -1745.1141      69.6775       -1675.4366     -1383.0066    
    173000   1072.5235      79946.917      5880.7351     -1744.4248      69.178637     -1675.2462     -1381.8037    
    174000   1128.7891      78455.796      5880.7351     -1747.8673      72.807812     -1675.0595     -1387.0901    
    175000   1176.2776      75479.779      5880.7351     -1750.7478      75.870861     -1674.8769     -1397.8309    
    176000   1110.3707      78544.36       5880.7351     -1746.3091      71.619812     -1674.6893     -1386.3948    
    177000   1156.3239      76622.333      5880.7351     -1749.0823      74.583833     -1674.4985     -1393.2588    
    178000   1155.0205      77414.357      5880.7351     -1748.8098      74.499759     -1674.31       -1390.1632    
    179000   1214.424       74985.74       5880.7351     -1752.4489      78.331337     -1674.1176     -1398.885     
    180000   1143.3938      78553.113      5880.7351     -1747.6721      73.749827     -1673.9223     -1385.5957    
    181000   1108.7464      80038.961      5880.7351     -1745.2461      71.515045     -1673.731      -1379.9507    
    182000   1168.9412      77958.3        5880.7351     -1748.9364      75.397656     -1673.5387     -1387.3954    
    183000   1109.0642      80242.2        5880.7351     -1744.8772      71.535539     -1673.3416     -1378.8153    
    184000   1183.8656      77328.588      5880.7351     -1749.5112      76.360293     -1673.1509     -1389.319     
    185000   1100.5403      80743.467      5880.7351     -1743.939       70.985742     -1672.9533     -1376.5871    
    186000   1170.682       78180.514      5880.7351     -1748.2656      75.509943     -1672.7557     -1385.7967    
    187000   1165.9528      78517.574      5880.7351     -1747.7641      75.204905     -1672.5592     -1384.3631    
    188000   1177.1331      78341.026      5880.7351     -1748.2885      75.92604      -1672.3625     -1384.8144    
    189000   1139.9183      79426.591      5880.7351     -1745.6887      73.525658     -1672.163      -1380.6304    
    190000   1175.1415      78420.573      5880.7351     -1747.7634      75.797583     -1671.9658     -1384.1257    
    191000   1181.0388      77988.423      5880.7351     -1747.9427      76.177964     -1671.7647     -1385.5108    
    192000   1127.0138      80641.2        5880.7351     -1744.257       72.693307     -1671.5637     -1375.5729    
    193000   1149.0963      79601.063      5880.7351     -1745.4807      74.117644     -1671.363      -1379.19      
    194000   1180.3697      78741.285      5880.7351     -1747.2961      76.134808     -1671.1613     -1382.1441    
    195000   1175.1936      79518.055      5880.7351     -1746.7571      75.800941     -1670.9562     -1379.0878    
    196000   1199.6548      77974.899      5880.7351     -1748.1308      77.378709     -1670.7521     -1384.5479    
    197000   1178.8405      80125.187      5880.7351     -1746.5831      76.036171     -1670.5469     -1376.4501    
    198000   1196.2012      78973.675      5880.7351     -1747.4975      77.155948     -1670.3415     -1380.4713    
    199000   1182.9378      79318.632      5880.7351     -1746.4384      76.300451     -1670.138      -1379.0016    
    200000   1188.6824      79404.804      5880.7351     -1746.6013      76.670978     -1669.9303     -1378.4777    
    201000   1193.2578      79957.599      5880.7351     -1746.6864      76.966097     -1669.7203     -1376.2386    
    202000   1184.634       80168.627      5880.7351     -1745.9232      76.409858     -1669.5133     -1375.257     
    203000   1165.336       81359.438      5880.7351     -1744.4695      75.165121     -1669.3044     -1370.6773    
    204000   1176.0382      80595.595      5880.7351     -1744.9528      75.855419     -1669.0974     -1373.274     
    205000   1156.9497      81930.119      5880.7351     -1743.5123      74.624194     -1668.8881     -1368.1663    
    206000   1145.8458      82162.667      5880.7351     -1742.585       73.907982     -1668.677      -1367.1017    
    207000   1179.9477      81558.734      5880.7351     -1744.5738      76.107583     -1668.4662     -1369.1076    
    208000   1241.9105      79310.691      5880.7351     -1748.3586      80.104234     -1668.2544     -1377.1471    
    209000   1199.3794      80310.175      5880.7351     -1745.399       77.360944     -1668.038      -1373.2622    
    210000   1200.64        80855.647      5880.7351     -1745.2628      77.442255     -1667.8206     -1371.0426    
    211000   1219.4511      79914.607      5880.7351     -1746.2592      78.655588     -1667.6036     -1374.2797    
    212000   1192.3294      81465.46       5880.7351     -1744.2954      76.906213     -1667.3892     -1368.373     
    213000   1162.4061      83011.285      5880.7351     -1742.1455      74.976138     -1667.1694     -1362.4792    
    214000   1201.8818      80901.44       5880.7351     -1744.4731      77.522353     -1666.9507     -1370.0047    
    215000   1201.4406      81638.461      5880.7351     -1744.2243      77.493893     -1666.7305     -1367.0792    
    216000   1209.1274      81710.157      5880.7351     -1744.4981      77.989703     -1666.5084     -1366.594     
    217000   1127.7052      84459.767      5880.7351     -1739.0222      72.737899     -1666.2843     -1356.2776    
    218000   1216.0274      81448.053      5880.7351     -1744.4987      78.434757     -1666.064      -1367.1116    
    219000   1216.2455      82411.65       5880.7351     -1744.2925      78.448825     -1665.8437     -1363.3545    
    220000   1176.4264      84378.26       5880.7351     -1741.4955      75.880456     -1665.615      -1355.9074    
    221000   1212.7651      82519.822      5880.7351     -1743.6139      78.224336     -1665.3896     -1362.5034    
    222000   1179.5617      84616.987      5880.7351     -1741.2407      76.082687     -1665.158      -1354.5742    
    223000   1210.7365      82870.868      5880.7351     -1743.0219      78.09349      -1664.9284     -1360.7537    
    224000   1214.9268      82370.025      5880.7351     -1743.0631      78.363764     -1664.6993     -1362.3629    
    225000   1269.3422      81103.905      5880.7351     -1746.3448      81.873601     -1664.4712     -1366.7821    
    226000   1244.6096      81492.6        5880.7351     -1744.5212      80.278329     -1664.2428     -1365.127     
    227000   1218.3155      83726.075      5880.7351     -1742.5941      78.582339     -1664.0117     -1356.698     
    228000   1225.7478      83243.398      5880.7351     -1742.8396      79.061726     -1663.7779     -1358.2358    
    229000   1234.8231      83198.285      5880.7351     -1743.1923      79.647093     -1663.5452     -1358.1687    
    230000   1170.2328      86054.964      5880.7351     -1738.7935      75.480964     -1663.3126     -1347.4507    
    231000   1198.1694      85530.533      5880.7351     -1740.3606      77.282897     -1663.0777     -1349.1407    
    232000   1190.4639      85553.833      5880.7351     -1739.628       76.785887     -1662.8421     -1348.8196    
    233000   1178.634       86191.175      5880.7351     -1738.6305      76.022849     -1662.6077     -1346.2458    
    234000   1257.6906      82894.522      5880.7351     -1743.495       81.122065     -1662.3729     -1358.1113    
    235000   1232.5099      84279.222      5880.7351     -1741.6326      79.497889     -1662.1348     -1352.7907    
    236000   1242.27        84499.547      5880.7351     -1742.0264      80.127423     -1661.8989     -1351.7462    
    237000   1280.2405      82939.359      5880.7351     -1744.2329      82.576555     -1661.6563     -1357.2302    
    238000   1185.6917      86965.773      5880.7351     -1737.8935      76.478076     -1661.4155     -1342.2105    
    239000   1224.7331      85895.919      5880.7351     -1740.1694      78.996279     -1661.1731     -1345.895     
    240000   1258.6827      84014.811      5880.7351     -1742.1155      81.186056     -1660.9295     -1352.5559    
    241000   1235.5714      85438.012      5880.7351     -1740.3799      79.695357     -1660.6846     -1347.0872    
    242000   1260.5218      84117.216      5880.7351     -1741.7433      81.304681     -1660.4386     -1351.6892    
    243000   1239.4128      85867.791      5880.7351     -1740.1328      79.943129     -1660.1897     -1345.0148    
    244000   1215.5722      86805.818      5880.7351     -1738.3477      78.405393     -1659.9423     -1341.3245    
    245000   1292.624       83600.791      5880.7351     -1743.0749      83.375295     -1659.6996     -1352.8457    
    246000   1214.4746      87147.163      5880.7351     -1737.7837      78.334597     -1659.4491     -1339.5784    
    247000   1277.0299      84690.515      5880.7351     -1741.5719      82.369469     -1659.2025     -1348.3488    
    248000   1261.9076      86175.568      5880.7351     -1740.3486      81.394067     -1658.9546     -1342.65      
    249000   1204.6398      88383.17       5880.7351     -1736.4017      77.700244     -1658.7014     -1334.294     
    250000   1237.0643      87521.273      5880.7351     -1738.2415      79.791649     -1658.4498     -1337.2059    
    251000   1339.472       82553.347      5880.7351     -1744.597       86.397029     -1658.2        -1355.1907    
    252000   1231.075       87551.074      5880.7351     -1737.3505      79.405339     -1657.9452     -1336.5919    
    253000   1305.3738      84707.907      5880.7351     -1741.8911      84.197673     -1657.6935     -1346.7759    
    254000   1276.1571      86830.837      5880.7351     -1739.7524      82.313169     -1657.4393     -1338.7296    
    255000   1323.6324      84460.607      5880.7351     -1742.5574      85.375365     -1657.1821     -1347.1722    
    256000   1274.7934      86718.422      5880.7351     -1739.151       82.225211     -1656.9258     -1338.6287    
    257000   1218.9208      89605.507      5880.7351     -1735.289       78.621385     -1656.6676     -1327.7736    
    258000   1279.8298      86652.408      5880.7351     -1738.9634      82.550065     -1656.4134     -1338.3586    
    259000   1314.5491      85718.529      5880.7351     -1740.9404      84.789485     -1656.1509     -1341.5239    
    260000   1283.6472      88031.081      5880.7351     -1738.6879      82.79629      -1655.8916     -1332.7765    
    261000   1270.1252      88019.402      5880.7351     -1737.5585      81.924108     -1655.6344     -1332.5621    
    262000   1324.2663      86246.298      5880.7351     -1740.7924      85.416255     -1655.3762     -1338.812     
    263000   1275.1357      88111.019      5880.7351     -1737.3566      82.247286     -1655.1093     -1331.7007    
    264000   1328.8302      85201.113      5880.7351     -1740.5567      85.71063      -1654.846      -1342.1182    
    265000   1322.8071      86742.707      5880.7351     -1739.9045      85.322132     -1654.5824     -1336.1962    
    266000   1272.8169      89023.034      5880.7351     -1736.4147      82.097724     -1654.317      -1327.5609    
    267000   1291.1126      88196.179      5880.7351     -1737.3302      83.277812     -1654.0524     -1330.3313    
    268000   1304.1719      87890.817      5880.7351     -1737.9054      84.120145     -1653.7853     -1331.185     
    269000   1333.2103      87162.767      5880.7351     -1739.5096      85.993145     -1653.5164     -1333.5884    
    270000   1290.9561      89115.832      5880.7351     -1736.5165      83.267716     -1653.2488     -1326.1521    
    271000   1386.6799      84769.06       5880.7351     -1742.4205      89.441978     -1652.9785     -1341.8365    
    272000   1259.8443      91042.257      5880.7351     -1733.9655      81.260979     -1652.7045     -1318.537     
    273000   1298.9978      89944.715      5880.7351     -1736.224       83.786411     -1652.4376     -1322.2985    
    274000   1278.1997      90203.306      5880.7351     -1734.6085      82.444918     -1652.1636     -1321.0754    
    275000   1341.6248      88289.658      5880.7351     -1738.4287      86.53589      -1651.8928     -1327.8286    
    276000   1299.9596      89783.717      5880.7351     -1735.4633      83.848451     -1651.6148     -1322.0667    
    277000   1290.3123      90824.746      5880.7351     -1734.5686      83.226191     -1651.3424     -1317.9732    
    278000   1359.8506      88358.113      5880.7351     -1738.7834      87.711469     -1651.0719     -1326.7565    
    279000   1302.9148      90905.487      5880.7351     -1734.8337      84.039066     -1650.7946     -1317.1291    
    280000   1237.1428      93671.666      5880.7351     -1730.314       79.796716     -1650.5173     -1306.6986    
    281000   1308.8918      91489.03       5880.7351     -1734.6661      84.424582     -1650.2415     -1314.4341    
    282000   1311.0919      90565.348      5880.7351     -1734.5325      84.566495     -1649.966      -1317.5489    
    283000   1297.0118      91499.937      5880.7351     -1733.3478      83.658313     -1649.6894     -1313.842     
    284000   1313.4081      91580.846      5880.7351     -1734.128       84.715891     -1649.4121     -1313.2676    
    285000   1304.0486      91999.105      5880.7351     -1733.2395      84.112193     -1649.1273     -1311.4477    
    286000   1342.2486      91613          5880.7351     -1735.4198      86.576123     -1648.8437     -1312.5812    
    287000   1352.9966      90626.158      5880.7351     -1735.8295      87.269377     -1648.5601     -1315.9198    
    288000   1349.4564      91737.129      5880.7351     -1735.3218      87.041034     -1648.2808     -1311.5627    
    289000   1331.2526      92149.095      5880.7351     -1733.8612      85.866872     -1647.9943     -1309.7641    
    290000   1392.4883      89817.223      5880.7351     -1737.5239      89.816624     -1647.7072     -1318.0361    
    291000   1358.5118      91194.1        5880.7351     -1735.0474      87.625112     -1647.4223     -1312.6974    
    292000   1381.2139      89840.374      5880.7351     -1736.2224      89.089415     -1647.133      -1317.3769    
    293000   1401.7833      90624.57       5880.7351     -1737.2655      90.416164     -1646.8493     -1314.2149    
    294000   1347.3842      92568.324      5880.7351     -1733.4697      86.907374     -1646.5623     -1306.7934    
    295000   1315.7522      94309.29       5880.7351     -1731.1378      84.867084     -1646.2707     -1300.1116    
    296000   1408.2862      90049.293      5880.7351     -1736.8189      90.835606     -1645.9833     -1315.4604    
    297000   1333.3336      93653.394      5880.7351     -1731.6889      86.001099     -1645.6878     -1301.9361    
    298000   1370.2901      92037.224      5880.7351     -1733.7845      88.384822     -1645.3997     -1307.5801    
    299000   1395.4203      91100.231      5880.7351     -1735.1098      90.005743     -1645.1041     -1310.7237    
    300000   1414.3236      91301.158      5880.7351     -1736.0336      91.225021     -1644.8086     -1309.6907    
    301000   1361.3563      93885.171      5880.7351     -1732.3239      87.808587     -1644.5153     -1299.9129    
    302000   1413.9252      91655.802      5880.7351     -1735.414       91.199325     -1644.2147     -1307.7952    
    303000   1328.0292      95903.722      5880.7351     -1729.5725      85.658964     -1643.9136     -1291.9022    
    304000   1365.211       94095.599      5880.7351     -1731.6754      88.057221     -1643.6182     -1298.2435    
    305000   1309.2325      97174.052      5880.7351     -1727.7658      84.446558     -1643.3192     -1286.6451    
    306000   1310.6745      96748.224      5880.7351     -1727.5602      84.539567     -1643.0206     -1287.9095    
    307000   1304.1844      97610.074      5880.7351     -1726.8372      84.120953     -1642.7162     -1284.4417    
    308000   1336.0286      96683.404      5880.7351     -1728.5897      86.17493      -1642.4148     -1287.5416    
    309000   1387.8303      94130.985      5880.7351     -1731.628       89.516182     -1642.1118     -1296.6072    
    310000   1420.2305      92975.083      5880.7351     -1733.4123      91.606022     -1641.8063     -1300.5444    
    311000   1356.4526      96179.438      5880.7351     -1728.9928      87.492292     -1641.5005     -1288.4771    
    312000   1399.9616      94286.522      5880.7351     -1731.4962      90.298663     -1641.1975     -1295.122     
    313000   1413.1909      94645.237      5880.7351     -1732.0407      91.151959     -1640.8887     -1293.4966    
    314000   1409.1552      94523.854      5880.7351     -1731.4752      90.891657     -1640.5835     -1293.6369    
    315000   1379.3068      97246.206      5880.7351     -1729.2385      88.966411     -1640.2721     -1283.3332    
    316000   1459.3423      93333.232      5880.7351     -1734.0928      94.128766     -1639.964      -1297.3875    
    317000   1344.0455      98388.523      5880.7351     -1726.341       86.692026     -1639.649      -1278.5172    
    318000   1427.4745      95570.089      5880.7351     -1731.4144      92.073268     -1639.3412     -1288.5544    
    319000   1350.3788      97936.35       5880.7351     -1726.1284      87.100531     -1639.0278     -1279.5557    
    320000   1339.5121      98611.349      5880.7351     -1725.1144      86.39962      -1638.7148     -1276.7651    
    321000   1427.5053      96395.674      5880.7351     -1730.4802      92.075249     -1638.405      -1284.5879    
    322000   1338.2824      100109.05      5880.7351     -1724.4059      86.320303     -1638.0856     -1270.6387    
    323000   1396.0255      98167.848      5880.7351     -1727.8129      90.044779     -1637.7681     -1277.4463    
    324000   1373.1627      99684.329      5880.7351     -1726.018       88.570111     -1637.4479     -1271.5599    
    325000   1388.5773      98017.869      5880.7351     -1726.696       89.564366     -1637.1316     -1277.3603    
    326000   1400.5564      98015.99       5880.7351     -1727.1516      90.337025     -1636.8146     -1277.0502    
    327000   1404.4362      99350.511      5880.7351     -1727.08        90.587279     -1636.4927     -1271.83      
    328000   1440.2546      96975.294      5880.7351     -1729.0692      92.897593     -1636.1716     -1280.2271    
    329000   1361.9207      100628.68      5880.7351     -1723.69        87.844989     -1635.845      -1266.4909    
    330000   1430.5566      97628.808      5880.7351     -1727.7985      92.272063     -1635.5265     -1277.1832    
    331000   1485.4057      95944.372      5880.7351     -1731.0068      95.809877     -1635.1969     -1283.0363    
    332000   1455.6894      98695.506      5880.7351     -1728.761       93.893148     -1634.8678     -1272.6093    
    333000   1435.6008      98911.364      5880.7351     -1727.1396      92.597417     -1634.5422     -1271.4913    
    334000   1390.7272      101959.1       5880.7351     -1723.9202      89.703032     -1634.2172     -1259.9797    
    335000   1414.716       99687.865      5880.7351     -1725.1416      91.250333     -1633.8913     -1267.9903    
    336000   1461.1061      98891.026      5880.7351     -1727.807       94.24253      -1633.5645     -1270.5883    
    337000   1405.471       101802.23      5880.7351     -1723.8883      90.65402      -1633.2343     -1259.5726    
    338000   1414.6597      100130.75      5880.7351     -1724.1534      91.246701     -1632.9067     -1265.3802    
    339000   1459.583       99368.044      5880.7351     -1726.721       94.144292     -1632.5767     -1267.8496    
    340000   1485.8607      99505.372      5880.7351     -1728.0869      95.839222     -1632.2477     -1267.0166    
    341000   1482.8036      98290.897      5880.7351     -1727.5587      95.642035     -1631.9166     -1271.1432    
    342000   1501.6221      98647.19       5880.7351     -1728.4374      96.855842     -1631.5816     -1269.5004    
    343000   1546.4683      96416.189      5880.7351     -1730.9942      99.74846      -1631.2457     -1277.3533    
    344000   1459.5328      101585.04      5880.7351     -1725.054       94.14105      -1630.913      -1258.0485    
    345000   1457.7005      101118.19      5880.7351     -1724.5942      94.022868     -1630.5713     -1259.4204    
    346000   1417.5106      102937.93      5880.7351     -1721.6636      91.430583     -1630.2331     -1252.4028    
    347000   1457.1061      102709.17      5880.7351     -1723.8795      93.984525     -1629.895      -1252.9044    
    348000   1471.8871      100812.16      5880.7351     -1724.4944      94.937916     -1629.5565     -1259.5288    
    349000   1407.3686      104632.08      5880.7351     -1719.9906      90.776421     -1629.2142     -1245.1657    
    350000   1459.083       102683.01      5880.7351     -1722.986       94.112039     -1628.874      -1251.9794    
    351000   1515.0761      101245.6       5880.7351     -1726.2576      97.723642     -1628.534      -1256.9154    
    352000   1458.0293      102693.92      5880.7351     -1722.2357      94.044076     -1628.1916     -1251.2571    
    353000   1437.5628      104245.96      5880.7351     -1720.5697      92.723966     -1627.8457     -1245.2144    
    354000   1474.4493      103236.72      5880.7351     -1722.6022      95.10318      -1627.499      -1248.5721    
    355000   1450.2267      104220.34      5880.7351     -1720.6961      93.540799     -1627.1553     -1244.618     
    356000   1491.0949      103185.9       5880.7351     -1722.9898      96.176831     -1626.813      -1248.0726    
    357000   1539.3914      101083.67      5880.7351     -1725.7552      99.291997     -1626.4632     -1255.439     
    358000   1541.3759      102261.4       5880.7351     -1725.5337      99.42         -1626.1137     -1250.7667    
    359000   1539.91        101523.93      5880.7351     -1725.0898      99.325449     -1625.7644     -1253.1242    
    360000   1488.5635      103655.03      5880.7351     -1721.4232      96.013555     -1625.4096     -1244.9473    
    361000   1469.4582      104859.86      5880.7351     -1719.8446      94.781249     -1625.0634     -1240.1788    
    362000   1471.3165      105328.51      5880.7351     -1719.6121      94.901112     -1624.711      -1238.1063    
    363000   1549.0908      102361.44      5880.7351     -1724.2788      99.917616     -1624.3612     -1248.647     
    364000   1507.7699      104188.87      5880.7351     -1721.257       97.252384     -1624.0046     -1241.5829    
    365000   1594.6633      100979.25      5880.7351     -1726.5057      102.85708     -1623.6486     -1253.0076    
    366000   1574.9155      101687.55      5880.7351     -1724.8781      101.58333     -1623.2948     -1250.054     
    367000   1580.0768      102320.95      5880.7351     -1724.855       101.91624     -1622.9387     -1247.3731    
    368000   1458.8633      107177.24      5880.7351     -1716.6755      94.097868     -1622.5777     -1229.1872    
    369000   1482.116       106409.67      5880.7351     -1717.8193      95.597686     -1622.2216     -1231.6485    
    370000   1580.3527      103623.63      5880.7351     -1723.7983      101.93403     -1621.8643     -1241.5172    
    371000   1554.2811      105420.17      5880.7351     -1721.7524      100.25239     -1621.5        -1234.5588    
    372000   1481.5621      107054.07      5880.7351     -1716.7005      95.561961     -1621.1386     -1228.2002    
    373000   1546.3095      105078.44      5880.7351     -1720.5206      99.738221     -1620.7824     -1235.0955    
    374000   1530.0289      106867.47      5880.7351     -1719.1046      98.688109     -1620.4165     -1228.163     
    375000   1587.1596      104194.86      5880.7351     -1722.4285      102.37308     -1620.0555     -1237.6117    
    376000   1556.32        105824.94      5880.7351     -1720.0715      100.3839      -1619.6876     -1231.2607    
    377000   1571.2795      105685.05      5880.7351     -1720.6732      101.3488      -1619.3244     -1231.4109    
    378000   1549.7285      106801.69      5880.7351     -1718.9167      99.958749     -1618.958      -1226.9459    
    379000   1554.3761      106893.24      5880.7351     -1718.8429      100.25852     -1618.5843     -1226.2363    
    380000   1599.677       105776.42      5880.7351     -1721.3929      103.18047     -1618.2124     -1229.9636    
    381000   1608.5875      105269.05      5880.7351     -1721.5951      103.7552      -1617.8399     -1231.4534    
    382000   1621.9045      105564.95      5880.7351     -1722.0773      104.61416     -1617.4631     -1229.9905    
    383000   1560.651       107667.07      5880.7351     -1717.756       100.66326     -1617.0928     -1221.9044    
    384000   1519.3392      110638.82      5880.7351     -1714.715       97.998611     -1616.7164     -1210.6203    
    385000   1557.9361      109509.36      5880.7351     -1716.8353      100.48814     -1616.3472     -1214.3967    
    386000   1589.1022      106954.04      5880.7351     -1718.4676      102.49839     -1615.9692     -1223.398     
    387000   1547.4316      109709.52      5880.7351     -1715.4081      99.810592     -1615.5975     -1212.9124    
    388000   1519.6118      111477.13      5880.7351     -1713.2382      98.016193     -1615.222      -1206.0489    
    389000   1630.8744      107216.57      5880.7351     -1720.0385      105.19272     -1614.8458     -1221.311     
    390000   1649.5839      107237.63      5880.7351     -1720.8694      106.3995      -1614.4699     -1220.8578    
    391000   1589.161       109174.93      5880.7351     -1716.5876      102.50217     -1614.0854     -1213.3625    
    392000   1554.9126      110907.97      5880.7351     -1713.9968      100.29312     -1613.7037     -1206.6197    
    393000   1650.5694      107185.72      5880.7351     -1719.7854      106.46307     -1613.3223     -1219.9008    
    394000   1581.4454      110426.92      5880.7351     -1714.9469      102.00452     -1612.9423     -1207.624     
    395000   1521.1703      112928.47      5880.7351     -1710.6694      98.116723     -1612.5526     -1198.0525    
    396000   1576.7881      110645.34      5880.7351     -1713.8765      101.70412     -1612.1724     -1206.0524    
    397000   1602.8667      111102.11      5880.7351     -1715.1677      103.3862      -1611.7815     -1203.985     
    398000   1587.0827      110815.01      5880.7351     -1713.7647      102.36812     -1611.3966     -1204.6538    
    399000   1587.7743      113008.1       5880.7351     -1713.4178      102.41273     -1611.005      -1196.2126    
    400000   1629.3021      110530.3       5880.7351     -1715.7078      105.09131     -1610.6165     -1204.9188    
    401000   1596.0566      112986.46      5880.7351     -1713.1745      102.94695     -1610.2275     -1195.5145    
    402000   1621.6683      111884.65      5880.7351     -1714.438       104.59892     -1609.8391     -1199.1702    
    403000   1577.7111      113262.97      5880.7351     -1711.217       101.76365     -1609.4534     -1193.7255    
    404000   1668.8503      109912.86      5880.7351     -1716.6989      107.6422      -1609.0567     -1205.6253    
    405000   1694.4943      109097.25      5880.7351     -1717.9652      109.29626     -1608.6689     -1208.2311    
    406000   1602.1915      113694.36      5880.7351     -1711.622       103.34266     -1608.2794     -1190.968     
    407000   1658.9643      111283.42      5880.7351     -1714.8903      107.00455     -1607.8857     -1199.4237    
    408000   1698.09        111087.25      5880.7351     -1717.0173      109.52819     -1607.4891     -1199.7471    
    409000   1685.0944      110683.78      5880.7351     -1715.7758      108.68996     -1607.0858     -1200.8247    
    410000   1707.8251      111039.49      5880.7351     -1716.8397      110.1561      -1606.6836     -1199.1169    
    411000   1657.3864      112752.73      5880.7351     -1713.1931      106.90277     -1606.2904     -1192.4353    
    412000   1609.8315      113983.31      5880.7351     -1709.7255      103.83544     -1605.89       -1187.5181    
    413000   1594.5876      116831.28      5880.7351     -1708.344       102.8522      -1605.4918     -1176.6665    
    414000   1601.146       116362.26      5880.7351     -1708.3672      103.27522     -1605.092      -1177.9882    
    415000   1618.9226      116629.31      5880.7351     -1709.1076      104.42182     -1604.6858     -1176.6018    
    416000   1655.8622      114470.16      5880.7351     -1711.0875      106.80446     -1604.2831     -1184.1242    
    417000   1612.559       116846.79      5880.7351     -1707.8824      104.01137     -1603.8711     -1174.9888    
    418000   1654.448       114033.39      5880.7351     -1710.1792      106.71324     -1603.466      -1184.9103    
    419000   1729.6012      113017.89      5880.7351     -1714.6201      111.56068     -1603.0594     -1188.231     
    420000   1627.8576      116628.45      5880.7351     -1707.6495      104.99814     -1602.6514     -1174.5706    
    421000   1646.0741      116242.61      5880.7351     -1708.4183      106.17312     -1602.2452     -1175.5806    
    422000   1715.7083      114124.5       5880.7351     -1712.498       110.66458     -1601.8334     -1182.9432    
    423000   1736.3947      113579.91      5880.7351     -1713.4279      111.99887     -1601.429      -1184.5377    
    424000   1664.3871      117218.36      5880.7351     -1708.3739      107.35432     -1601.0196     -1170.7735    
    425000   1630.9916      119296.7       5880.7351     -1705.8071      105.20028     -1600.6068     -1162.7323    
    426000   1749.2382      113634.39      5880.7351     -1713.0161      112.82729     -1600.1888     -1183.0976    
    427000   1655.7932      118672.91      5880.7351     -1706.5736      106.80001     -1599.7736     -1164.1887    
    428000   1690.9146      117448.74      5880.7351     -1708.4269      109.06537     -1599.3615     -1168.2699    
    429000   1721.343       116434.92      5880.7351     -1709.9743      111.02802     -1598.9463     -1171.5758    
    430000   1718.2345      116398.72      5880.7351     -1709.3526      110.82752     -1598.525      -1171.2875    
    431000   1673.5003      119184.92      5880.7351     -1706.0447      107.94213     -1598.1025     -1160.6383    
    432000   1615.1024      121493.02      5880.7351     -1701.8606      104.17542     -1597.6851     -1151.7491    
    433000   1736.3644      116752.05      5880.7351     -1709.2688      111.99691     -1597.2719     -1168.7374    
    434000   1652.0962      119924.89      5880.7351     -1703.4065      106.56155     -1596.8449     -1156.6646    
    435000   1750.085       116178.16      5880.7351     -1709.3108      112.8819      -1596.4289     -1170.0008    
    436000   1736.2123      117797.88      5880.7351     -1707.9933      111.9871      -1596.0062     -1163.633     
    437000   1720.0156      119018.37      5880.7351     -1706.5242      110.9424      -1595.5818     -1158.7289    
    438000   1825.3297      114327.98      5880.7351     -1712.8926      117.73525     -1595.1573     -1175.5203    
    439000   1739.7922      119257.23      5880.7351     -1706.9441      112.21801     -1594.7261     -1156.9964    
    440000   1792.9608      116441.61      5880.7351     -1709.9447      115.64743     -1594.2973     -1166.9023    
    441000   1737.0866      120051.18      5880.7351     -1705.9133      112.0435      -1593.8698     -1153.226     
    442000   1688.9482      123420.98      5880.7351     -1702.3794      108.93853     -1593.4409     -1140.4283    
    443000   1702.2828      121744.41      5880.7351     -1702.8049      109.79862     -1593.0062     -1146.1475    
    444000   1804.347       118365.32      5880.7351     -1708.9581      116.38185     -1592.5762     -1158.1203    
    445000   1767.502       120906.89      5880.7351     -1706.1431      114.00531     -1592.1378     -1148.3531    
    446000   1725.5046      122084.57      5880.7351     -1702.9953      111.29645     -1591.6989     -1143.5915    
    447000   1815.3697      118513.24      5880.7351     -1708.3598      117.09282     -1591.2669     -1156.2681    
    448000   1737.7818      121704.57      5880.7351     -1702.9175      112.08834     -1590.8292     -1144.1166    
    449000   1726.7713      123110.19      5880.7351     -1701.7669      111.37815     -1590.3888     -1138.517     
    450000   1781.8029      121149.66      5880.7351     -1704.8814      114.92774     -1589.9537     -1145.2779    
    451000   1732.038       123732.16      5880.7351     -1701.2315      111.71786     -1589.5137     -1135.359     
    452000   1809.944       121292.26      5880.7351     -1705.8169      116.74286     -1589.0741     -1143.8749    
    453000   1793.4662      122585.13      5880.7351     -1704.312       115.68003     -1588.632      -1138.6874    
    454000   1743.8114      122840.42      5880.7351     -1700.6725      112.47725     -1588.1952     -1137.3136    
    455000   1759.1916      123519.27      5880.7351     -1701.2225      113.46929     -1587.7532     -1134.3799    
    456000   1773.0405      123555.31      5880.7351     -1701.6705      114.36255     -1587.3079     -1133.8023    
    457000   1800.0027      122538.72      5880.7351     -1702.9587      116.10164     -1586.8571     -1137.0828    
    458000   1740.5648      125985.89      5880.7351     -1698.6735      112.26784     -1586.4057     -1123.9787    
    459000   1768.6199      124207.52      5880.7351     -1700.0294      114.07742     -1585.952      -1130.0524    
    460000   1760.3754      125520.3       5880.7351     -1699.0447      113.54564     -1585.499      -1124.781     
    461000   1809.6334      124480.66      5880.7351     -1701.7694      116.72283     -1585.0466     -1128.1445    
    462000   1822.4248      124033.64      5880.7351     -1702.1484      117.54788     -1584.6005     -1129.3392    
    463000   1844.1186      123409.95      5880.7351     -1703.0954      118.94715     -1584.1483     -1131.1762    
    464000   1853.864       123141.61      5880.7351     -1703.2709      119.57573     -1583.6952     -1131.708     
    465000   1796.7902      126150.46      5880.7351     -1699.1353      115.89443     -1583.2408     -1120.2098    
    466000   1772.2077      126966.19      5880.7351     -1697.0936      114.30883     -1582.7847     -1116.7596    
    467000   1816.2819      125469.55      5880.7351     -1699.4796      117.15165     -1582.328      -1121.7962    
    468000   1785.7278      128490.76      5880.7351     -1697.0533      115.18089     -1581.8724     -1110.2514    
    469000   1812.2835      126510.43      5880.7351     -1698.3045      116.89376     -1581.4107     -1117.0584    
    470000   1792.1134      127038.55      5880.7351     -1696.5475      115.59277     -1580.9547     -1114.664     
    471000   1921.4833      123020.24      5880.7351     -1704.436       123.93723     -1580.4987     -1128.9571    
    472000   1840.3085      126960.02      5880.7351     -1698.735       118.70139     -1580.0336     -1114.0311    
    473000   1858.2892      126435.87      5880.7351     -1699.435       119.86116     -1579.5738     -1115.4952    
    474000   1933.4413      123682.5       5880.7351     -1703.8151      124.70854     -1579.1066     -1125.1341    
    475000   1826.4138      129527.51      5880.7351     -1696.4479      117.80517     -1578.6427     -1103.2163    
    476000   1896.3231      125544.62      5880.7351     -1700.4941      122.31438     -1578.1798     -1117.3724    
    477000   1920.5133      124992.33      5880.7351     -1701.5856      123.87467     -1577.7109     -1118.9307    
    478000   1822.51        129813.05      5880.7351     -1694.7965      117.55337     -1577.2431     -1100.7687    
    479000   1879.2403      128405.24      5880.7351     -1697.9863      121.21253     -1576.7738     -1105.4666    
    480000   1883.2949      127917.13      5880.7351     -1697.7708      121.47405     -1576.2967     -1106.7812    
    481000   1863.4134      129660.84      5880.7351     -1696.0142      120.19168     -1575.8225     -1099.9067    
    482000   1956.4119      124890.08      5880.7351     -1701.537       126.19016     -1575.3469     -1116.942     
    483000   1904.4587      128988.87      5880.7351     -1697.7099      122.83913     -1574.8707     -1101.4214    
    484000   1871.6498      129503.25      5880.7351     -1695.113       120.72293     -1574.3901     -1099.0527    
    485000   1863.5288      130551.9       5880.7351     -1694.1079      120.19912     -1573.9088     -1094.7224    
    486000   1871.4749      130604.83      5880.7351     -1694.1468      120.71165     -1573.4351     -1094.0544    
    487000   1886.2063      131039.32      5880.7351     -1694.6167      121.66184     -1572.9548     -1091.9794    
    488000   1953.7903      129031.6       5880.7351     -1698.4948      126.02106     -1572.4737     -1098.8676    
    489000   1904.6112      130842.28      5880.7351     -1694.8427      122.84897     -1571.9937     -1091.7415    
    490000   1845.3744      134246.76      5880.7351     -1690.5379      119.02815     -1571.5097     -1078.7615    
    491000   1842.7227      134418.51      5880.7351     -1689.8877      118.85711     -1571.0306     -1077.652     
    492000   1977.3858      128018.88      5880.7351     -1698.0942      127.54299     -1570.5512     -1100.6622    
    493000   1901.5347      132916.4       5880.7351     -1692.7199      122.65053     -1570.0693     -1082.2041    
    494000   1875.7         133110.98      5880.7351     -1690.5676      120.98418     -1569.5834     -1081.004     
    495000   1936.7655      132782.7       5880.7351     -1694.0205      124.92295     -1569.0976     -1081.7231    
    496000   1941.0397      132059.2       5880.7351     -1693.8071      125.19864     -1568.6084     -1083.8896    
    497000   1893.4292      133568.9       5880.7351     -1690.2467      122.12772     -1568.119      -1077.8588    
    498000   1895.9368      134797.04      5880.7351     -1689.9199      122.28946     -1567.6304     -1072.8624    
    499000   1893.0674      134184.59      5880.7351     -1689.2434      122.10438     -1567.139      -1074.6189    
    500000   1895.3203      135206.93      5880.7351     -1688.9036      122.2497      -1566.6539     -1070.3814    
    501000   1956.5472      132761.59      5880.7351     -1692.3618      126.19889     -1566.1629     -1078.8659    
    502000   1969.0118      132630.04      5880.7351     -1692.6681      127.00286     -1565.6653     -1078.8511    
    503000   1934.572       134978.32      5880.7351     -1689.9523      124.78147     -1565.1708     -1069.7374    
    504000   2031.8988      131741.23      5880.7351     -1695.7361      131.05913     -1564.6769     -1081.1252    
    505000   1931.4052      135597.03      5880.7351     -1688.7517      124.57721     -1564.1745     -1066.4702    
    506000   1936.2907      136241.28      5880.7351     -1688.5682      124.89233     -1563.6759     -1063.6068    
    507000   1990.4046      132693.05      5880.7351     -1691.5553      128.38271     -1563.1726     -1076.1272    
    508000   2049.8644      131988.04      5880.7351     -1694.895       132.21792     -1562.6771     -1078.2194    
    509000   1981.3735      135733.52      5880.7351     -1689.9715      127.8002      -1562.1713     -1063.966     
    510000   1989.4255      135998.6       5880.7351     -1689.984       128.31956     -1561.6644     -1062.4862    
    511000   1979.568       137475.65      5880.7351     -1688.8365      127.68374     -1561.1527     -1056.5529    
    512000   2068.4385      133656.19      5880.7351     -1694.0684      133.41596     -1560.6524     -1070.0718    
    513000   1941.8573      138946.93      5880.7351     -1685.4001      125.25137     -1560.1488     -1050.1487    
    514000   1961.2567      138399.42      5880.7351     -1686.145       126.50265     -1559.6423     -1051.6519    
    515000   2035.8789      136766.34      5880.7351     -1690.4567      131.31585     -1559.1408     -1057.1446    
    516000   2015.3182      136863.33      5880.7351     -1688.628       129.98966     -1558.6384     -1056.2861    
    517000   2059.8834      135554.22      5880.7351     -1691.0014      132.86415     -1558.1373     -1060.59      
    518000   1998.4933      139039.62      5880.7351     -1686.5289      128.90444     -1557.6245     -1047.2842    
    519000   2032.0771      135969.95      5880.7351     -1688.1803      131.07062     -1557.1097     -1058.0366    
    520000   2055.8148      137160.46      5880.7351     -1689.2006      132.60173     -1556.5989     -1053.156     
    521000   2002.2241      139942.1       5880.7351     -1685.2369      129.14508     -1556.0918     -1042.439     
    522000   2002.4194      140262.43      5880.7351     -1684.7356      129.15768     -1555.578      -1040.7494    
    523000   1985.859       141039.53      5880.7351     -1683.1456      128.08952     -1555.0561     -1037.3752    
    524000   2030.4535      139378.11      5880.7351     -1685.5006      130.9659      -1554.5347     -1042.952     
    525000   2074.8905      138103.07      5880.7351     -1687.8484      133.83212     -1554.0163     -1047.1136    
    526000   1976.6548      142341.45      5880.7351     -1680.9975      127.49584     -1553.5016     -1031.0421    
    527000   2068.0765      138521.31      5880.7351     -1686.3743      133.39262     -1552.9817     -1044.5439    
    528000   2008.0098      141072.45      5880.7351     -1681.9814      129.51826     -1552.4631     -1034.6614    
    529000   1975.5349      144298.08      5880.7351     -1679.3629      127.42361     -1551.9393     -1022.298     
    530000   2075.8274      139396.35      5880.7351     -1685.3025      133.89256     -1551.41       -1039.7604    
    531000   2126.6151      139122.06      5880.7351     -1688.0491      137.1684      -1550.8807     -1040.2379    
    532000   2101.4353      140864.45      5880.7351     -1685.8973      135.54429     -1550.353      -1033.3148    
    533000   2084.0456      141152.57      5880.7351     -1684.2494      134.42263     -1549.8268     -1031.731     
    534000   2011.5937      144607.21      5880.7351     -1679.0395      129.74943     -1549.2901     -1018.5141    
    535000   2206.1766      137585.05      5880.7351     -1691.0636      142.30019     -1548.7634     -1043.7621    
    536000   2038.0388      145799.19      5880.7351     -1679.672       131.45516     -1548.2169     -1013.0658    
    537000   2108.1352      142563.07      5880.7351     -1683.66        135.97643     -1547.6836     -1024.4106    
    538000   2055.2109      144432.28      5880.7351     -1679.7118      132.56277     -1547.149      -1017.0152    
    539000   2137.6775      141651.55      5880.7351     -1684.492       137.88193     -1546.6101     -1026.6828    
    540000   2110.1386      143161.44      5880.7351     -1682.1763      136.10566     -1546.0707     -1020.6014    
    541000   2099.5261      143344.23      5880.7351     -1680.952       135.42114     -1545.5309     -1019.3907    
    542000   2059.7687      146374.15      5880.7351     -1677.8494      132.85675     -1544.9927     -1007.7312    
    543000   2099.8204      144763.54      5880.7351     -1679.9021      135.44012     -1544.462      -1013.1123    
    544000   2185.2441      141817.52      5880.7351     -1684.867       140.95002     -1543.917      -1023.3806    
    545000   2181.3469      143335.79      5880.7351     -1684.0667      140.69865     -1543.368      -1017.2588    
    546000   2124.5672      144561.75      5880.7351     -1679.8608      137.03631     -1542.8245     -1012.2154    
    547000   2132.9274      145713.53      5880.7351     -1679.8635      137.57555     -1542.2879     -1007.4513    
    548000   2195.1827      142771.11      5880.7351     -1683.3377      141.59107     -1541.7466     -1017.71      
    549000   2084.9091      147197.96      5880.7351     -1675.6788      134.47833     -1541.2005     -1000.9153    
    550000   2134.8372      147193.2       5880.7351     -1678.354       137.69874     -1540.6552     -1000.3875    
    551000   2163.3422      146747.68      5880.7351     -1679.6463      139.53733     -1540.109      -1001.4765    
    552000   2091.5368      148621.97      5880.7351     -1674.4629      134.90582     -1539.557      -994.04508    
    553000   2208.7402      144572.9       5880.7351     -1681.4735      142.46554     -1539.008      -1008.358     
    554000   2115.5083      149367.73      5880.7351     -1674.8988      136.452       -1538.4468     -990.19757    
    555000   2152.9345      147660.56      5880.7351     -1676.7614      138.86603     -1537.8954     -995.91227    
    556000   2100.011       150889.52      5880.7351     -1672.7951      135.45242     -1537.3427     -983.50777    
    557000   2087.4906      152240.03      5880.7351     -1671.4359      134.64484     -1536.791      -977.99912    
    558000   2222.3086      147474.24      5880.7351     -1679.5835      143.34071     -1536.2428     -994.94359    
    559000   2185.7862      147966.3       5880.7351     -1676.6716      140.98498     -1535.6866     -992.58129    
    560000   2252.7813      147068.77      5880.7351     -1680.4348      145.30622     -1535.1286     -995.31759    
    561000   2254.3801      146732.78      5880.7351     -1679.9794      145.40935     -1534.5701     -995.99229    
    562000   2136.6322      151780.56      5880.7351     -1671.819       137.81451     -1534.0045     -976.89903    
    563000   2135.5345      152439.61      5880.7351     -1671.1856      137.74371     -1533.4419     -973.91742    
    564000   2344.0515      144072.89      5880.7351     -1684.0759      151.19323     -1532.8827     -1004.068     
    565000   2260.7911      148013.45      5880.7351     -1678.1414      145.82286     -1532.3186     -989.04015    
    566000   2154.3235      152433.18      5880.7351     -1670.7032      138.95562     -1531.7476     -972.24669    
    567000   2209.0596      149886.4       5880.7351     -1673.6635      142.48614     -1531.1773     -981.02433    
    568000   2160.2827      153774.62      5880.7351     -1669.9429      139.33999     -1530.6029     -966.17837    
    569000   2226.5792      150788.94      5880.7351     -1673.6551      143.61617     -1530.0389     -976.57313    
    570000   2204.0959      151556.19      5880.7351     -1671.6389      142.16598     -1529.4729     -973.19104    
    571000   2194.1928      153749.71      5880.7351     -1670.4294      141.52722     -1528.9022     -964.56903    
    572000   2227.3274      152457.44      5880.7351     -1671.9939      143.66443     -1528.3295     -968.73957    
    573000   2200.6994      154858.52      5880.7351     -1669.7015      141.9469      -1527.7546     -959.35164    
    574000   2215.7042      153729.05      5880.7351     -1670.0959      142.91472     -1527.1812     -962.92388    
    575000   2318.3575      150455.68      5880.7351     -1676.1437      149.53594     -1526.6077     -974.36519    
    576000   2189.0913      156318.53      5880.7351     -1667.2303      141.19816     -1526.0322     -952.27023    
    577000   2219.2629      155501.6       5880.7351     -1668.5927      143.14426     -1525.4484     -954.68505    
    578000   2305.3384      151784.84      5880.7351     -1673.5691      148.6962      -1524.8729     -967.75167    
    579000   2186.6383      157849.37      5880.7351     -1665.3337      141.03994     -1524.2938     -944.91298    
    580000   2242.277       156356.31      5880.7351     -1668.3455      144.62869     -1523.7168     -949.8162     
    581000   2223.8815      156980.93      5880.7351     -1666.5735      143.44216     -1523.1313     -946.93812    
    582000   2214.1478      157778.21      5880.7351     -1665.3577      142.81433     -1522.5434     -943.42373    
    583000   2258.4583      157335.46      5880.7351     -1667.6162      145.67239     -1521.9438     -944.4493     
    584000   2272.1804      156927.72      5880.7351     -1667.9132      146.55748     -1521.3558     -945.35781    
    585000   2190.9341      159866.43      5880.7351     -1662.0787      141.31703     -1520.7617     -933.97734    
    586000   2187.2939      161672.16      5880.7351     -1661.2539      141.08224     -1520.1716     -926.75939    
    587000   2283.2998      156866.35      5880.7351     -1666.8614      147.27469     -1519.5867     -943.81407    
    588000   2343.4076      156467.34      5880.7351     -1670.154       151.1517      -1519.0023     -944.69422    
    589000   2361.5043      155997.36      5880.7351     -1670.7322      152.31895     -1518.4132     -945.83011    
    590000   2271.086       159961.91      5880.7351     -1664.3237      146.48689     -1517.8368     -930.70199    
    591000   2355.5152      156663.97      5880.7351     -1669.1745      151.93264     -1517.2418     -942.21199    
    592000   2269.4228      161801.47      5880.7351     -1663.0211      146.37961     -1516.6414     -922.75458    
    593000   2343.2047      157210.22      5880.7351     -1667.1816      151.13861     -1516.0429     -939.0081     
    594000   2314.0084      158927.1       5880.7351     -1664.6912      149.25542     -1515.4357     -932.09913    
    595000   2324.1472      161102.22      5880.7351     -1664.7513      149.90938     -1514.8419     -923.52164    
    596000   2301.6193      161189.35      5880.7351     -1662.6981      148.45631     -1514.2418     -922.60169    
    597000   2357.4917      159389.99      5880.7351     -1665.7132      152.06013     -1513.653      -928.61742    
    598000   2420.341       157284.89      5880.7351     -1669.166       156.11396     -1513.0521     -935.74317    
    599000   2291.5254      162049.2       5880.7351     -1660.2485      147.80525     -1512.4432     -917.64703    
    600000   2385.3344      159425.28      5880.7351     -1665.6968      153.85601     -1511.8408     -926.6756     
    601000   2279.1089      163438.09      5880.7351     -1658.2313      147.00437     -1511.2269     -911.3329     
    602000   2274.6372      164414.67      5880.7351     -1657.3351      146.71595     -1510.6191     -907.14061    
    603000   2292.3379      163761.44      5880.7351     -1657.8712      147.85766     -1510.0135     -908.93263    
    604000   2367.8136      161667.32      5880.7351     -1662.1282      152.7259      -1509.4023     -916.00782    
    605000   2288.0171      166452.01      5880.7351     -1656.3656      147.57896     -1508.7866     -897.83008    
    606000   2401.0426      161831.38      5880.7351     -1663.0497      154.8692      -1508.1805     -914.18388    
    607000   2405.4878      161069.48      5880.7351     -1662.7214      155.15592     -1507.5655     -916.3654     
    608000   2314.5207      166140.68      5880.7351     -1656.2381      149.28846     -1506.9496     -897.13579    
    609000   2381.6221      164505.4       5880.7351     -1659.9649      153.61656     -1506.3483     -902.53675    
    610000   2385.3642      164241.18      5880.7351     -1659.6058      153.85793     -1505.7479     -902.90612    
    611000   2399.0533      165081.11      5880.7351     -1659.8773      154.74089     -1505.1364     -899.21169    
    612000   2430.9986      163131.69      5880.7351     -1661.3294      156.80139     -1504.528      -905.75862    
    613000   2342.0118      166630.01      5880.7351     -1654.9743      151.06166     -1503.9126     -892.30275    
    614000   2372.2328      167557.45      5880.7351     -1656.3079      153.01094     -1503.297      -888.28299    
    615000   2358.0248      168956.78      5880.7351     -1654.7737      152.09452     -1502.6792     -882.52898    
    616000   2380.5474      168787.06      5880.7351     -1655.6029      153.54724     -1502.0557     -882.52843    
    617000   2447.2048      166707.65      5880.7351     -1659.2845      157.8467      -1501.4378     -889.54294    
    618000   2337.7623      169917.63      5880.7351     -1651.6144      150.78757     -1500.8269     -877.14992    
    619000   2416.521       167510.13      5880.7351     -1656.0753      155.86757     -1500.2077     -885.36742    
    620000   2535.4407      162844.05      5880.7351     -1663.1231      163.53798     -1499.5852     -901.87153    
    621000   2320.0978      171282.67      5880.7351     -1648.6117      149.64819     -1498.9635     -870.27618    
    622000   2353.4867      169985.26      5880.7351     -1650.141       151.8018      -1498.3392     -874.41396    
    623000   2395.1431      170223.06      5880.7351     -1652.2061      154.48867     -1497.7174     -872.91937    
    624000   2446.398       168516.93      5880.7351     -1654.8675      157.79466     -1497.0728     -878.53705    
    625000   2540.2247      167115.27      5880.7351     -1660.2918      163.84656     -1496.4453     -883.05426    
    626000   2478.5163      169151.6       5880.7351     -1655.6664      159.86631     -1495.8001     -874.93479    
    627000   2292.8914      175677.47      5880.7351     -1643.0625      147.89336     -1495.1691     -850.35083    
    628000   2497.2631      169019.17      5880.7351     -1655.6102      161.0755      -1494.5347     -874.15548    
    629000   2474.1497      169870.1       5880.7351     -1653.4766      159.58467     -1493.892      -870.38947    
    630000   2432.6789      171869.28      5880.7351     -1650.1662      156.90976     -1493.2565     -862.41603    
    631000   2521.4339      170305.06      5880.7351     -1655.2456      162.63453     -1492.6111     -867.51203    
    632000   2485.3081      170670.95      5880.7351     -1652.2659      160.30439     -1491.9615     -865.5195     
    633000   2533.4608      170572.55      5880.7351     -1654.7332      163.41028     -1491.3229     -865.24211    
    634000   2545.7783      169808.46      5880.7351     -1654.8795      164.20477     -1490.6747     -867.39847    
    635000   2549.8438      170102.73      5880.7351     -1654.4998      164.467       -1490.0328     -865.67643    
    636000   2415.344       176752.37      5880.7351     -1645.1884      155.79165     -1489.3967     -840.63308    
    637000   2495.4699      173562.59      5880.7351     -1649.7071      160.95984     -1488.7473     -851.69162    
    638000   2463.7464      174538.9       5880.7351     -1647.0074      158.91365     -1488.0938     -847.45458    
    639000   2415.0432      178486.58      5880.7351     -1643.2098      155.77225     -1487.4375     -832.3085     
    640000   2556.3248      172376.28      5880.7351     -1651.669       164.88503     -1486.784      -854.08261    
    641000   2367.9225      180427.21      5880.7351     -1638.869       152.73293     -1486.1361     -823.88404    
    642000   2381.2085      180039.49      5880.7351     -1639.0874      153.58988     -1485.4975     -824.66861    
    643000   2336.0041      184665.31      5880.7351     -1635.5506      150.67416     -1484.8764     -807.06861    
    644000   2157.6043      190451.51      5880.7351     -1623.4578      139.16723     -1484.2906     -785.24468    
    645000   2149.2448      190797.4       5880.7351     -1622.357       138.62804     -1483.729      -783.41354    
    646000   2152.1711      192877.39      5880.7351     -1621.9928      138.81679     -1483.176      -775.22605    
    647000   2117.6767      193878.97      5880.7351     -1619.2114      136.59187     -1482.6195     -770.99327    
    648000   2135.6102      193069.51      5880.7351     -1619.8124      137.74859     -1482.0638     -773.40859    
    649000   2162.4311      191525.52      5880.7351     -1620.9814      139.47856     -1481.5028     -778.51483    
    650000   2106.8485      195186.98      5880.7351     -1616.8263      135.89344     -1480.9329     -764.5056     
    651000   2085.8258      196476.71      5880.7351     -1614.8937      134.53746     -1480.3562     -759.19504    
    652000   2181.501       193521.52      5880.7351     -1620.4953      140.70859     -1479.7867     -769.47249    
    653000   2146.7469      195438.37      5880.7351     -1617.6653      138.46692     -1479.1983     -761.84837    
    654000   2113.402       195886.62      5880.7351     -1614.9379      136.31615     -1478.6217     -759.62647    
    655000   2116.6598      197378.12      5880.7351     -1614.5616      136.52628     -1478.0353     -753.56553    
    656000   2108.6048      196959.32      5880.7351     -1613.451       136.00673     -1477.4443     -754.51168    
    657000   2121.8259      197506.15      5880.7351     -1613.7304      136.85949     -1476.8709     -751.93122    
    658000   2099.0232      198854.42      5880.7351     -1611.6756      135.3887      -1476.2869     -746.39848    
    659000   2135.8954      198081.51      5880.7351     -1613.4675      137.76699     -1475.7005     -748.64895    
    660000   2171.543       196155.29      5880.7351     -1615.1701      140.06629     -1475.1038     -755.12239    
    661000   2167.5478      198143.88      5880.7351     -1614.319       139.80859     -1474.5104     -747.22998    
    662000   2089.8609      199311         5880.7351     -1608.7079      134.79773     -1473.9102     -742.34583    
    663000   2161.0702      199384.11      5880.7351     -1612.6976      139.39078     -1473.3068     -741.47412    
    664000   2352.2318      192161.16      5880.7351     -1624.4367      151.72086     -1472.7158     -767.39476    
    665000   2147.9741      196810.63      5880.7351     -1610.658       138.54608     -1472.1119     -749.72507    
    666000   2087.6754      202773.79      5880.7351     -1606.1612      134.65676     -1471.5045     -727.23006    
    667000   2285.4074      196629.04      5880.7351     -1618.3179      147.41063     -1470.9073     -749.18703    
[...]
    819000   2898.8318      253347.43      5880.7351     -1547.6239      186.97701     -1360.6469     -430.74364    
    820000   3100.6128      249125.1       5880.7351     -1559.8012      199.99205     -1359.8092     -445.40387    
    821000   3065.3281      249553.68      5880.7351     -1556.6642      197.71615     -1358.9481     -442.96967    
    822000   2947.993       256597.2       5880.7351     -1548.2351      190.14794     -1358.0871     -416.25573    
    823000   3021.8854      253147.62      5880.7351     -1552.1518      194.91407     -1357.2377     -428.06784    
    824000   3030.7267      253998.4       5880.7351     -1551.8735      195.48433     -1356.3892     -424.09659    
    825000   3120.8209      250220.68      5880.7351     -1556.8263      201.29548     -1355.5308     -437.10422    
    826000   3138.522       251338.33      5880.7351     -1557.1196      202.43722     -1354.6824     -432.15345    
    827000   3082.9852      254356.41      5880.7351     -1552.6741      198.85505     -1353.819      -420.21232    
    828000   3096.5262      256342.6       5880.7351     -1552.6818      199.72846     -1352.9534     -412.05646    
    829000   3071.1651      254225.4       5880.7351     -1550.196       198.09264     -1352.1034     -418.97758    
    830000   3074.5017      255548.78      5880.7351     -1549.5474      198.30786     -1351.2396     -413.25635    
    831000   3077.7157      255848.37      5880.7351     -1548.8967      198.51516     -1350.3816     -411.29871    
    832000   2966.4322      260957.17      5880.7351     -1540.8553      191.33729     -1349.518      -391.68346    
    833000   3126.3677      255796.11      5880.7351     -1550.301       201.65326     -1348.6477     -409.7567     
    834000   3089.573       256021.18      5880.7351     -1547.0505      199.27997     -1347.7705     -408.05334    
    835000   3140.6111      257573.1       5880.7351     -1549.4675      202.57197     -1346.8956     -401.48216    
    836000   3102.0982      259119.02      5880.7351     -1546.1078      200.08786     -1346.02       -394.93229    
    837000   3234.091       257047.9       5880.7351     -1553.7478      208.6015      -1345.1464     -401.66066    
    838000   3108.6144      261832.31      5880.7351     -1544.7848      200.50815     -1344.2767     -383.22998    
    839000   3252.2491      253953.91      5880.7351     -1553.1794      209.77271     -1343.4067     -411.27739    
    840000   3202.9771      259340.51      5880.7351     -1549.1193      206.59463     -1342.5246     -390.624      
    841000   3250.351       257141.73      5880.7351     -1551.2992      209.65028     -1341.6489     -397.81881    
    842000   3126.6418      262822.68      5880.7351     -1542.4281      201.67094     -1340.7572     -376.07532    
    843000   3189.9276      258493.8       5880.7351     -1545.618       205.75292     -1339.8651     -391.07224    
    844000   3212.9801      262129.98      5880.7351     -1546.2159      207.23983     -1338.9761     -376.83679    
    845000   3304.6111      256927.91      5880.7351     -1551.2448      213.1501      -1338.0947     -395.0494     
    846000   3277.8288      258661.53      5880.7351     -1548.6159      211.42262     -1337.1933     -387.78478    
    847000   3204.6411      262955.58      5880.7351     -1543.0153      206.70195     -1336.3134     -371.14371    
    848000   3253.4621      260754         5880.7351     -1545.2693      209.85095     -1335.4184     -378.32956    
    849000   3188.1004      266092.34      5880.7351     -1540.1595      205.63506     -1334.5245     -357.84149    
    850000   3298.6206      261446.33      5880.7351     -1546.397       212.76371     -1333.6333     -374.00335    
    851000   3223.8118      262348.61      5880.7351     -1540.6712      207.93848     -1332.7327     -369.79097    
    852000   3268.4305      261760.74      5880.7351     -1542.6455      210.81642     -1331.8291     -371.04507    
    853000   3300.8833      262288.06      5880.7351     -1543.8408      212.90966     -1330.9312     -368.21165    
    854000   3379.3217      261780.59      5880.7351     -1548.0029      217.969       -1330.0339     -369.17699    
    855000   3258.2682      265404.74      5880.7351     -1539.2828      210.16095     -1329.1219     -354.96269    
    856000   3333.5978      263205.65      5880.7351     -1543.2497      215.01977     -1328.23       -362.14248    
    857000   3070.6574      272055.48      5880.7351     -1525.3813      198.0599      -1327.3214     -328.75084    
    858000   3334.5852      264741.85      5880.7351     -1541.5103      215.08346     -1326.4268     -354.70075    
    859000   3374.2734      265590.6       5880.7351     -1543.1536      217.64337     -1325.5102     -350.66882    
    860000   3375.2976      263163.91      5880.7351     -1542.2949      217.70944     -1324.5855     -358.65116    
    861000   3425.6288      264262.76      5880.7351     -1544.6354      220.95584     -1323.6796     -353.71197    
    862000   3244.8316      270605.04      5880.7351     -1532.0684      209.29428     -1322.7741     -329.52742    
    863000   3433.1884      264629.87      5880.7351     -1543.3055      221.44344     -1321.8621     -350.54698    
    864000   3405.6095      266414.24      5880.7351     -1540.6069      219.66458     -1320.9423     -343.0778     
    865000   3226.1803      274374.7       5880.7351     -1528.1249      208.09125     -1320.0336     -312.95045    
    866000   3340.5497      269009.95      5880.7351     -1534.5889      215.46817     -1319.1208     -331.72877    
    867000   3315.4836      272266.68      5880.7351     -1532.0591      213.85139     -1318.2078     -318.86204    
    868000   3429.0214      268588.77      5880.7351     -1538.4606      221.17466     -1317.2859     -331.43981    
    869000   3311.4059      272744.87      5880.7351     -1529.9442      213.58837     -1316.3559     -315.25495    
    870000   3443.2766      271765.32      5880.7351     -1537.5144      222.09414     -1315.4202     -317.91474    
    871000   3466.6271      268872.73      5880.7351     -1538.097       223.60026     -1314.4968     -327.60845    
    872000   3292.2382      278065.25      5880.7351     -1525.9211      212.35204     -1313.569      -292.93985    
    873000   3455.2879      269162.71      5880.7351     -1535.5184      222.86887     -1312.6495     -324.69682    
    874000   3298.5606      278506.81      5880.7351     -1524.4608      212.75984     -1311.701      -289.4511     
    875000   3291.3903      277263.27      5880.7351     -1523.0508      212.29735     -1310.7534     -293.0679     
    876000   3443.5531      274052.84      5880.7351     -1531.9259      222.11197     -1309.8139     -303.91218    
    877000   3351.4932      278138.81      5880.7351     -1525.0412      216.17404     -1308.8672     -287.96798    
    878000   3377.5345      278602.76      5880.7351     -1525.7868      217.85372     -1307.933      -285.33094    
    879000   3503.9325      273258.69      5880.7351     -1532.9982      226.00649     -1306.9917     -304.00481    
    880000   3457.3303      273157.84      5880.7351     -1529.0342      223.00061     -1306.0336     -303.41691    
    881000   3482.0188      276574.97      5880.7351     -1529.7028      224.59304     -1305.1098     -289.95063    
    882000   3481.0197      277678.85      5880.7351     -1528.6827      224.5286      -1304.1541     -284.94319    
    883000   3442.8623      278265.28      5880.7351     -1525.246       222.06741     -1303.1786     -281.8152     
    884000   3549.7891      274296.96      5880.7351     -1531.2032      228.96428     -1302.239      -295.44118    
    885000   3586.6825      271301.26      5880.7351     -1532.6276      231.34394     -1301.2836     -305.48144    
    886000   3650.4912      273940.33      5880.7351     -1535.7959      235.45965     -1300.3362     -294.84745    
    887000   3442.6177      280314.91      5880.7351     -1521.4114      222.05164     -1299.3597     -270.47325    
    888000   3486.2426      279361.3       5880.7351     -1523.2733      224.86548     -1298.4078     -273.02153    
    889000   3370.3703      285501.96      5880.7351     -1514.833       217.39162     -1297.4413     -249.51597    
    890000   3592.5341      276375.5       5880.7351     -1528.1916      231.72137     -1296.4702     -282.04322    
    891000   3359.5334      285815.85      5880.7351     -1512.193       216.69263     -1295.5004     -246.42288    
    892000   3515.5469      280658.31      5880.7351     -1521.2773      226.75563     -1294.5217     -264.37477    
    893000   3549.5049      279685.1       5880.7351     -1522.5035      228.94595     -1293.5576     -266.98277    
    894000   3483.7297      283482.62      5880.7351     -1517.2886      224.70339     -1292.5852     -252.0717     
    895000   3618.2601      280087.04      5880.7351     -1524.9888      233.38072     -1291.6081     -263.55804    
    896000   3581.214       283883.1       5880.7351     -1521.6395      230.99121     -1290.6483     -248.66487    
    897000   3635.1509      279442.59      5880.7351     -1524.1423      234.47019     -1289.6721     -263.98745    
    898000   3678.3979      280539.1       5880.7351     -1525.9623      237.25965     -1288.7027     -258.99328    
    899000   3507.6993      288866.62      5880.7351     -1513.9595      226.24945     -1287.71       -227.4348     
    900000   3754.9815      278713.4       5880.7351     -1528.9313      242.19936     -1286.732      -263.72375    
    901000   3539.1017      286520.76      5880.7351     -1514.0139      228.27493     -1285.7389     -234.07409    
    902000   3543.6077      286213.3       5880.7351     -1513.3446      228.56558     -1284.779      -234.24271    
    903000   3744.9652      281474.71      5880.7351     -1525.3395      241.55329     -1283.7862     -250.64277    
    904000   3696.3992      283530.11      5880.7351     -1521.2269      238.42075     -1282.8062     -242.11841    
    905000   3634.4636      287120.59      5880.7351     -1516.236       234.42586     -1281.8102     -227.94367    
    906000   3749.3256      282021.85      5880.7351     -1522.6625      241.83455     -1280.828      -245.67623    
    907000   3562.8502      290695.82      5880.7351     -1509.6465      229.80673     -1279.8398     -212.8505     
    908000   3793.4671      284803.75      5880.7351     -1523.5354      244.68171     -1278.8536     -233.49103    
    909000   3766.7271      285139.03      5880.7351     -1520.8262      242.95695     -1277.8693     -231.276      
    910000   3744.5859      283361.79      5880.7351     -1518.3801      241.52883     -1276.8513     -236.78131    
    911000   3772.0453      287856.45      5880.7351     -1519.1687      243.29999     -1275.8687     -219.3013     
    912000   3801.2723      288015.86      5880.7351     -1520.0667      245.18515     -1274.8815     -217.72894    
    913000   3655.5985      295192.85      5880.7351     -1509.6814      235.78907     -1273.8923     -190.39689    
    914000   3846.3987      288327.86      5880.7351     -1521.0026      248.09584     -1272.9067     -214.60897    
    915000   3569.8631      296279.57      5880.7351     -1502.1508      230.25907     -1271.8917     -184.40747    
    916000   3706.2065      289017.35      5880.7351     -1509.9429      239.05333     -1270.8895     -210.06106    
    917000   3648.7371      293476.04      5880.7351     -1505.2427      235.3465      -1269.8962     -192.70226    
    918000   3879.2038      285824.95      5880.7351     -1519.0901      250.2118      -1268.8783     -219.76744    
    919000   3665.2006      294404.01      5880.7351     -1504.2882      236.40842     -1267.8797     -187.2797     
    920000   3941.5607      285532.28      5880.7351     -1521.1047      254.23387     -1266.8708     -218.83412    
    921000   3639.819       299137.52      5880.7351     -1500.6308      234.77128     -1265.8595     -167.88526    
    922000   3824.2486      293615.31      5880.7351     -1511.5206      246.66714     -1264.8535     -187.14832    
    923000   3734.0952      300228.88      5880.7351     -1504.6882      240.85217     -1263.8361     -161.85603    
    924000   3798.4861      295984.6       5880.7351     -1507.8355      245.00544     -1262.83       -176.42846    
    925000   3809.9413      296335.44      5880.7351     -1507.5517      245.74431     -1261.8074     -174.11807    
    926000   3906.1236      293734.12      5880.7351     -1512.7568      251.94815     -1260.8087     -182.66748    
    927000   3827.226       294846.41      5880.7351     -1506.6544      246.85918     -1259.7952     -177.57135    
    928000   3710.7333      302609.96      5880.7351     -1498.1225      239.34531     -1258.7772     -148.05752    
    929000   3925.7068      292128.66      5880.7351     -1510.9655      253.21128     -1257.7543     -185.5058     
    930000   3815.0135      298756.41      5880.7351     -1502.7889      246.07147     -1256.7174     -160.14203    
    931000   3947.4748      296113.77      5880.7351     -1510.3102      254.61533     -1255.6948     -168.81916    
    932000   3855.3319      301574.38      5880.7351     -1503.3313      248.67204     -1254.6592     -147.74056    
    933000   3867.0678      299615.58      5880.7351     -1503.0651      249.42901     -1253.636      -153.90712    
    934000   3885.0686      295353.13      5880.7351     -1503.1839      250.59008     -1252.5939     -168.51009    
    935000   4103.586       290306.52      5880.7351     -1516.2506      264.68463     -1251.5659     -186.00557    
    936000   3901.813       299094.64      5880.7351     -1502.1978      251.67011     -1250.5277     -152.7109     
    937000   3884.8415      302721.77      5880.7351     -1500.0566      250.57543     -1249.4811     -138.35102    
    938000   4105.0703      294717.5       5880.7351     -1513.2439      264.78037     -1248.4636     -166.71287    
    939000   3882.3249      301987.3       5880.7351     -1497.8444      250.41311     -1247.4313     -138.99705    
    940000   3936.1747      303619.47      5880.7351     -1500.276       253.88647     -1246.3896     -131.96448    
    941000   4016.5891      301914.41      5880.7351     -1504.4157      259.07326     -1245.3425     -137.17573    
    942000   4090.5616      298195.62      5880.7351     -1508.1505      263.84454     -1244.3059     -149.7889     
    943000   3909.5768      304187.01      5880.7351     -1495.4289      252.17088     -1243.2581     -126.74982    
    944000   3944.034       306442.33      5880.7351     -1496.608       254.39339     -1242.2146     -117.42828    
    945000   3997.8901      303824.05      5880.7351     -1499.0224      257.86716     -1241.1552     -125.97922    
    946000   3913.6717      308926.19      5880.7351     -1492.5561      252.435       -1240.1211     -106.21786    
    947000   4255.5647      294799.84      5880.7351     -1513.5613      274.48738     -1239.0739     -157.02098    
    948000   4052.5673      305175.02      5880.7351     -1499.4379      261.39389     -1238.0441     -117.90938    
    949000   4062.7455      305006.85      5880.7351     -1499.0181      262.05039     -1236.9677     -117.45028    
    950000   4106.0693      303051.45      5880.7351     -1500.7771      264.84481     -1235.9323     -123.59206    
    951000   4337.7483      297236.33      5880.7351     -1514.6502      279.78829     -1234.862      -143.86598    
    952000   4111.285       302139.94      5880.7351     -1498.9713      265.18122     -1233.7901     -124.79557    
    953000   4133.0948      304481.85      5880.7351     -1499.3125      266.58797     -1232.7246     -115.13414    
    954000   3870.2772      315060.24      5880.7351     -1481.2944      249.63602     -1231.6583     -75.240275    
    955000   4050.5001      311719.59      5880.7351     -1491.8579      261.26055     -1230.5973     -86.441033    
    956000   4062.1869      307831.61      5880.7351     -1491.549       262.01435     -1229.5346     -99.649008    
    957000   4090.5172      309198.11      5880.7351     -1492.32        263.84169     -1228.4783     -93.576988    
    958000   4194.496       305574.7       5880.7351     -1497.9629      270.5484      -1227.4145     -105.81277    
    959000   4086.0914      309053.21      5880.7351     -1489.8937      263.55621     -1226.3375     -91.968046    
    960000   4059.7317      312637.66      5880.7351     -1487.1369      261.85599     -1225.2809     -77.754882    
    961000   4160.7152      308802.3       5880.7351     -1492.5644      268.36951     -1224.1948     -90.746349    
    962000   4010.612       318508.14      5880.7351     -1481.8302      258.68773     -1223.1424     -54.068982    
    963000   4228.023       306813.5       5880.7351     -1494.7893      272.71092     -1222.0784     -95.929707    
    964000   4247.7237      309382.09      5880.7351     -1494.9765      273.98163     -1220.9949     -85.418331    
    965000   4281.551       310278.37      5880.7351     -1496.066       276.16352     -1219.9025     -81.03613     
    966000   4007.8987      316527.24      5880.7351     -1477.3404      258.51272     -1218.8276     -57.025021    
    967000   4393.1456      309084.5       5880.7351     -1501.1229      283.36146     -1217.7614     -83.277111    
    968000   4215.297       311023.08      5880.7351     -1488.5609      271.89008     -1216.6708     -75.070998    
    969000   4127.2196      320209.54      5880.7351     -1481.8047      266.20902     -1215.5957     -40.277288    
    970000   4365.7508      309728.35      5880.7351     -1496.108       281.59447     -1214.5135     -77.665984    
    971000   4115.6821      321454.27      5880.7351     -1478.887       265.46484     -1213.4221     -33.535019    
    972000   4162.2373      316843         5880.7351     -1480.8113      268.46769     -1212.3436     -49.382028    
    973000   4170.1171      319828.1       5880.7351     -1480.2377      268.97594     -1211.2618     -37.343493    
    974000   4193.0015      319586.02      5880.7351     -1480.642       270.452       -1210.19       -37.160276    
    975000   4336.584       314321.96      5880.7351     -1488.8018      279.71319     -1209.0886     -55.38042     
    976000   4447.5434      312595.75      5880.7351     -1494.8725      286.87016     -1208.0023     -60.630111    
    977000   4235.4211      319163.15      5880.7351     -1480.1151      273.1881      -1206.927      -35.449351    
    978000   4004.9608      328173.06      5880.7351     -1464.1403      258.32323     -1205.8171     -1.2688823    
    979000   4316.0345      318923.63      5880.7351     -1483.1103      278.38773     -1204.7226     -34.124085    
    980000   4299.3179      319931.19      5880.7351     -1480.9354      277.3095      -1203.6259     -29.329204    
    981000   4270.9949      321583.07      5880.7351     -1478.0139      275.48264     -1202.5313     -22.17144     
    982000   4164.8148      327462.18      5880.7351     -1470.0636      268.63394     -1201.4297      0.50926702   
    983000   4501.3386      313165.34      5880.7351     -1490.6893      290.34        -1200.3493     -50.886483    
    984000   4307.0161      322295.45      5880.7351     -1477.0136      277.80604     -1199.2076     -16.232926    
    985000   4288.0535      323267.5       5880.7351     -1474.7096      276.58294     -1198.1267     -11.584167    
    986000   4680.4157      310824.63      5880.7351     -1498.9225      301.89062     -1197.0319     -56.160482    
    987000   4315.1345      324586.92      5880.7351     -1474.2543      278.32968     -1195.9246     -4.5391605    
    988000   4329.1976      325681.3       5880.7351     -1474.0545      279.23676     -1194.8178      0.58451056   
