LAMMPS (2 Jun 2022)
OMP_NUM_THREADS environment is not set. Defaulting to 1 thread. (src/comm.cpp:98)
  using 1 OpenMP thread(s) per MPI task
#initial setup
units 			metal
boundary 		p p p
atom_style		atomic
timestep		0.001
neighbor		2.0 bin
neigh_modify	delay 0 every 5 check yes
#modeling box
region 			box block 0 20 0 20 0 20 units box
create_box		2 box
Created orthogonal box = (0 0 0) to (20 20 20)
  2 by 2 by 2 MPI processor grid
#Cu
lattice 		fcc 3.61
Lattice spacing in x,y,z = 3.61 3.61 3.61
region 			Cu block 0 20 0 20 0 10 units box
create_atoms 	1 region Cu
Created 432 atoms
  using lattice units in orthogonal box = (0 0 0) to (20 20 20)
  create_atoms CPU = 0.000 seconds
mass			1 63.54
#Ni
lattice 		fcc 3.53
Lattice spacing in x,y,z = 3.53 3.53 3.53
region 			Ni block 0 20 0 20 10 20 units box
create_atoms 	2 region Ni
Created 432 atoms
  using lattice units in orthogonal box = (0 0 0) to (20 20 20)
  create_atoms CPU = 0.000 seconds
mass			1 58.69
#eam potential coefficent
pair_style 		eam/alloy
pair_coeff * * CuNi.eam.alloy Cu Ni
Reading eam/alloy potential file CuNi.eam.alloy with DATE: 2014-07-11

fix 1 all nvt temp 3000 3000 100
thermo 1000
thermo_style custom step temp press vol pe ke etotal enthalpy
thermo_modify flush yes
dump 1 all custom 1000 dump.traj id type x y z
run 1000000
Neighbor list info ...
  update every 5 steps, delay 0 steps, check yes
  max neighbors/atom: 2000, page size: 100000
  master list distance cutoff = 8.3943324
  ghost atom cutoff = 8.3943324
  binsize = 4.1971662, bins = 5 5 5
  1 neighbor lists, perpetual/occasional/extra = 1 0 0
  (1) pair eam/alloy, perpetual
      attributes: half, newton on
      pair build: half/bin/atomonly/newton
      stencil: half/bin/3d
      bin: standard
Per MPI rank memory allocation (min/avg/max) = 4.65 | 4.65 | 4.65 Mbytes
   Step          Temp          Press          Volume         PotEng         KinEng         TotEng        Enthalpy   
         0   0              1156142        8000           2017.7911      0              2017.7911      7790.648     
      1000   28237.744      977317.75      8000          -1187.3802      3149.9628      1962.5826      6842.533     
      2000   28116.015      1027388.9      8000          -1179.7161      3136.3838      1956.6677      7086.6336    
      3000   27680.691      1058051.7      8000          -1141.5683      3087.8227      1946.2544      7229.3263    
      4000   27309.935      1078063.8      8000          -1119.551       3046.4643      1926.9133      7309.9099    
      5000   28428.791      1067237.6      8000          -1268.4428      3171.2744      1902.8316      7231.7706    
      6000   27759.196      991838.93      8000          -1217.8586      3096.5801      1878.7215      6831.1793    
      7000   26821.179      1095940.2      8000          -1140.5573      2991.9429      1851.3856      7323.6428    
      8000   27658.907      1026167        8000          -1261.9412      3085.3927      1823.4515      6947.3162    
      9000   26870.725      998040.21      8000          -1201.6669      2997.4698      1795.8029      6779.225     
     10000   26597.023      984719.43      8000          -1196.3056      2966.938       1770.6323      6687.541     
     11000   26265.742      1018766.3      8000          -1183.027       2929.983       1746.956       6833.8675    
     12000   26909.704      1019956.3      8000          -1276.4414      3001.8179      1725.3766      6818.2301    
     13000   26598.096      997736.42      8000          -1262.9924      2967.0576      1704.0652      6685.9704    
     14000   26081.597      984775.77      8000          -1228.4558      2909.4414      1680.9856      6598.1755    
     15000   26643.843      972383.47      8000          -1315.9103      2972.1608      1656.2505      6511.5631    
     16000   26562.655      968168.47      8000          -1330.3719      2963.1041      1632.7322      6466.9984    
     17000   26323.203      977019.91      8000          -1328.8311      2936.3929      1607.5618      6486.0251    
     18000   25211.459      1035920.7      8000          -1230.2249      2812.3762      1582.1514      6754.7187    
     19000   25294.705      994929.2       8000          -1267.3198      2821.6624      1554.3426      6522.2308    
     20000   25966.352      981958.6       8000          -1369.1831      2896.5856      1527.4025      6430.5257    
     21000   25327.56       953421.18      8000          -1325.9862      2825.3275      1499.3413      6259.9712    
     22000   25121.677      929797.63      8000          -1330.8754      2802.3609      1471.4855      6114.1582    
     23000   24912.028      964593.17      8000          -1336.0752      2778.9742      1442.899       6259.313     
     24000   26036.958      873346.07      8000          -1491.3902      2904.4619      1413.0717      5773.87      
     25000   25435.433      934547.04      8000          -1451.2245      2837.3609      1386.1364      6052.5239    
     26000   24927.866      973354.9       8000          -1423.0212      2780.741       1357.7198      6217.883     
     27000   24814.018      879002.12      8000          -1438.9664      2768.0411      1329.0747      5718.1149    
     28000   24011.763      919978.72      8000          -1379.282       2678.5483      1299.2663      5892.9111    
     29000   24420.104      935416.28      8000          -1453.427       2724.0993      1270.6724      5941.4001    
     30000   24591.609      860460.51      8000          -1502.3824      2743.231       1240.8486      5537.3066    
     31000   24734.658      876369.98      8000          -1546.9185      2759.1883      1212.2699      5588.1672    
     32000   24571.183      751812.58      8000          -1558.5525      2740.9524      1182.4         4936.3563    
     33000   24485.902      855378.08      8000          -1578.5955      2731.4392      1152.8437      5423.9241    
     34000   24438.685      855217.52      8000          -1606.6508      2726.1721      1119.5213      5389.8       
     35000   23860.82       761019.62      8000          -1571.6446      2661.7104      1090.0659      4889.9949    
     36000   24140.623      729964.45      8000          -1632.2404      2692.9228      1060.6824      4705.5465    
     37000   23415.446      769444.32      8000          -1581.7423      2612.0282      1030.2859      4872.2812    
     38000   23776.819      770483.16      8000          -1652.3686      2652.34        999.97141      4847.1538    
     39000   23745.083      741243.05      8000          -1679.4738      2648.7998      969.32593      4670.5064    
     40000   22921.572      787322.24      8000          -1618.4004      2556.9358      938.53548      4869.7989    
     41000   22979.919      740886.32      8000          -1655.3341      2563.4445      908.11047      4607.5098    
     42000   22728.305      732048.61      8000          -1656.2055      2535.3766      879.17105      4534.4418    
     43000   22182.053      767288.71      8000          -1624.1703      2474.4414      850.27103      4681.5029    
     44000   21918.05       743881.6       8000          -1622.6513      2444.9915      822.34018      4536.6955    
     45000   22473.513      795081.4       8000          -1713.0419      2506.9541      793.91225      4763.9188    
     46000   22272.391      721799.7       8000          -1718.8885      2484.5187      765.6303       4369.7261    
     47000   22215.61       664406.82      8000          -1742.6615      2478.1847      735.52321      4053.0444    
     48000   22004.443      735104.97      8000          -1748.1882      2454.6287      706.44055      4376.9723    
     49000   21939.353      684188.08      8000          -1768.7316      2447.3679      678.63628      4094.9295    
     50000   22054.329      689971.57      8000          -1810.665       2460.1936      649.5286       4094.6999    
     51000   21235.176      679424.23      8000          -1746.6834      2368.8159      622.13243      4014.6387    
     52000   20946.282      651687.01      8000          -1741.8551      2336.5893      594.73421      3848.7428    
     53000   21583.313      679001.89      8000          -1841.213       2407.651       566.43803      3956.8355    
     54000   21356.545      646754.1       8000          -1845.0843      2382.3547      537.27037      3766.6479    
     55000   21181.527      621096.06      8000          -1853.1971      2362.8312      509.63416      3610.8958    
     56000   20589.432      613554.21      8000          -1814.3818      2296.7822      482.40039      3546.004     
     57000   21074.108      664775.52      8000          -1896.0269      2350.8485      454.82153      3774.1837    
     58000   20338.139      626577.19      8000          -1840.6698      2268.75        428.08022      3556.7102    
     59000   20152.171      619232.54      8000          -1846.2508      2248.005       401.75424      3493.7109    
     60000   19750.11       667074.09      8000          -1829.1439      2203.1545      374.01059      3704.8501    
     61000   20087.762      600498.58      8000          -1893.9764      2240.8201      346.8437       3345.2578    
     62000   20052.904      574789.38      8000          -1917.4518      2236.9317      319.47989      3189.5226    
     63000   20069.18       594475.26      8000          -1945.6947      2238.7473      293.05256      3261.391     
     64000   20089.666      573782.08      8000          -1974.2488      2241.0325      266.78368      3131.7968    
     65000   19526.232      579772.25      8000          -1938.0166      2178.1806      240.16406      3135.0873    
     66000   20292.914      598195.89      8000          -2051.292       2263.7051      212.41308      3199.3294    
     67000   19039.03       615305.8       8000          -1936.9975      2123.8325      186.83497      3259.1846    
     68000   19456.408      577085.15      8000          -2010.4351      2170.3916      159.95651      3041.4625    
     69000   19533.726      577047.98      8000          -2045.3405      2179.0166      133.67611      3014.9965    
     70000   19421.001      546046.1       8000          -2057.764       2166.4419      108.67788      2835.1995    
     71000   18895.843      599772.83      8000          -2023.5044      2107.8598      84.355389      3079.1457    
     72000   19450.701      518102.94      8000          -2111.051       2169.755       58.70396       2645.6995    
     73000   18336.651      515486.07      8000          -2011.2733      2045.481       34.207678      2608.1367    
     74000   18973.103      520084.7       8000          -2106.9419      2116.4782      9.5362484      2606.4272    
     75000   18691.841      489096.45      8000          -2100.9072      2085.103      -15.804227      2426.3559    
     76000   18748.218      498747.16      8000          -2131.3254      2091.3919     -39.933551      2450.4146    
     77000   17443.427      479513.88      8000          -2010.0622      1945.8405     -64.22171       2330.0907    
     78000   17934.006      478193.46      8000          -2088.9481      2000.5653     -88.382767      2299.3365    
     79000   18400.377      496608.6       8000          -2164.529       2052.5898     -111.93929      2367.7306    
     80000   17868.625      483921.73      8000          -2128.9079      1993.272      -135.63592      2280.6858    
     81000   18023.698      450522.74      8000          -2170.4426      2010.5707     -159.87191      2089.6817    
     82000   18455.089      439207.8       8000          -2242.7612      2058.6929     -184.06826      2008.9875    
     83000   17505.875      466516.01      8000          -2160.5777      1952.8067     -207.77097      2121.6403    
     84000   17088.775      439630.61      8000          -2137.5424      1906.2786     -231.26381      1963.9032    
     85000   16829.803      420264.39      8000          -2132.2354      1877.3899     -254.84557      1843.6218    
     86000   16954.108      426679.29      8000          -2170.7214      1891.2563     -279.4651       1851.0332    
     87000   17100.386      430058.23      8000          -2210.2892      1907.5738     -302.71543      1844.6546    
     88000   17182.211      430551.38      8000          -2243.4904      1916.7015     -326.78892      1823.0435    
     89000   16534.499      419155.62      8000          -2195.2479      1844.4483     -350.79967      1742.1314    
     90000   17049.193      430163.29      8000          -2274.9757      1901.8632     -373.11255      1774.7821    
     91000   16171.346      380709.94      8000          -2199.3021      1803.9379     -395.36416      1505.5996    
     92000   16945.359      399772.69      8000          -2308.1738      1890.2803     -417.89352      1578.2545    
     93000   16992.217      368539.92      8000          -2335.6099      1895.5074     -440.10252      1400.0938    
     94000   16726.356      401091.39      8000          -2327.5286      1865.8502     -461.67837      1541.0542    
     95000   16196.049      400964.8       8000          -2290.1314      1806.6937     -483.43768      1518.6628    
     96000   16522.858      376178.44      8000          -2349.4517      1843.1497     -506.30194      1372.0351    
     97000   16259.25       387741.86      8000          -2341.4201      1813.7438     -527.6763       1408.3993    
     98000   15790.06       406832.53      8000          -2309.6525      1761.4049     -548.24757      1483.1518    
     99000   16045.432      385207.82      8000          -2359.9986      1789.8921     -570.10649      1353.3162    
    100000   16021.055      374896.91      8000          -2378.8855      1787.1728     -591.71263      1280.2255    
    101000   15855.206      343321.74      8000          -2381.2406      1768.6721     -612.56844      1101.7083    
    102000   15651.76       340097.87      8000          -2378.6453      1745.9774     -632.66795      1065.5113    
    103000   15958.696      354520.79      8000          -2433.7507      1780.2166     -653.5341       1116.6618    
    104000   15749.534      293380         8000          -2430.747       1756.8843     -673.86276      791.04449    
    105000   15297.209      275182.16      8000          -2400.6614      1706.4267     -694.23473      679.80697    
    106000   15002.548      328910.32      8000          -2387.6747      1673.5568     -714.11792      928.1996     
    107000   15168.356      314071.85      8000          -2426.5721      1692.0529     -734.51911      833.70685    
    108000   14995.682      343911.54      8000          -2427.6893      1672.7909     -754.89845      962.32329    
    109000   15161.202      352134.28      8000          -2465.6529      1691.2549     -774.39804      983.88154    
    110000   14957.62       339812.08      8000          -2462.197       1668.545      -793.65201      903.1003     
    111000   15261.39       307402.78      8000          -2515.71        1702.4311     -813.27889      721.64703    
    112000   14895.622      266136.43      8000          -2495.356       1661.6291     -833.72698      495.14748    
    113000   14867.052      260383.24      8000          -2511.086       1658.442      -852.64399      447.50361    
    114000   14387.575      277496.88      8000          -2476.9585      1604.9557     -872.00283      513.5967     
    115000   14690.995      288690.51      8000          -2530.7068      1638.8026     -891.90419      549.58747    
    116000   14418.163      285587.4       8000          -2518.7984      1608.3677     -910.43063      515.56656    
    117000   14264.117      305493.66      8000          -2520.1456      1591.1837     -928.96182      596.43145    
    118000   14276.515      322591.26      8000          -2539.6774      1592.5667     -947.11073      663.65441    
    119000   14077.149      281934.75      8000          -2535.3336      1570.3271     -965.00643      442.75234    
    120000   14434.556      301302.5       8000          -2593.7051      1610.1965     -983.50865      520.95731    
    121000   13849.866      277906.74      8000          -2546.8084      1544.9734     -1001.835       385.81105    
    122000   13860.453      316578.53      8000          -2565.2151      1546.1544     -1019.0607      561.6816     
    123000   14069.297      285897.99      8000          -2606.7799      1569.4513     -1037.3286      390.21943    
    124000   13693.395      281943.06      8000          -2581.9021      1527.5188     -1054.3833      353.41699    
    125000   13726.698      274477.36      8000          -2603.1539      1531.2338     -1071.9201      298.6023     
    126000   13502.806      259939.2       8000          -2595.4702      1506.2584     -1089.2118      208.7186     
    127000   13771.761      284720.14      8000          -2643.0833      1536.2607     -1106.8226      314.84424    
    128000   13652.357      263578.06      8000          -2646.6723      1522.9409     -1123.7313      192.36866    
    129000   12978.486      235217.96      8000          -2588.2082      1447.7697     -1140.4385      34.053645    
    130000   13567.948      209671.45      8000          -2670.5071      1513.525      -1156.982      -110.04894    
    131000   13470.609      211097.1       8000          -2676.7867      1502.6667     -1174.1201     -120.06843    
    132000   13446.697      194614.82      8000          -2690.9988      1499.9992     -1190.9996     -219.24736    
    133000   13684.138      216053.96      8000          -2734.9442      1526.4862     -1208.4581     -129.65579    
    134000   13033.014      202082.91      8000          -2678.8647      1453.8523     -1225.0124     -215.97046    
    135000   13048.12       245161.28      8000          -2697.0046      1455.5375     -1241.4671     -17.325959    
    136000   13081.407      157900.31      8000          -2717.4907      1459.2506     -1258.2401     -469.81102    
    137000   12744.217      184326.52      8000          -2696.3473      1421.6366     -1274.7108     -354.33019    
    138000   13115.572      229229.7       8000          -2754.3889      1463.0618     -1291.3271     -146.73559    
    139000   13218.518      200297.26      8000          -2782.12        1474.5455     -1307.5745     -307.44863    
    140000   12378.459      169228.17      8000          -2704.7106      1380.8358     -1323.8749     -478.88346    
    141000   12429.064      185217.89      8000          -2726.4939      1386.4808     -1340.0132     -415.18176    
    142000   12634.025      184149.71      8000          -2765.2309      1409.3445     -1355.8863     -436.38858    
    143000   12674.146      182557.47      8000          -2785.415       1413.82       -1371.595      -460.04757    
    144000   12310.448      212780.82      8000          -2760.569       1373.2489     -1387.32       -324.86121    
    145000   12025.744      192265.32      8000          -2744.3167      1341.4899     -1402.8268     -442.80615    
    146000   12645.988      195759.08      8000          -2829.1347      1410.679      -1418.4557     -440.98996    
    147000   12609.323      159919.57      8000          -2840.6175      1406.589      -1434.0286     -635.51699    
    148000   11784.236      152624.94      8000          -2764.1189      1314.5493     -1449.5696     -687.48156    
    149000   12332.136      177223.19      8000          -2840.1295      1375.6683     -1464.4611     -579.54893    
    150000   11886.41       154742.37      8000          -2805.161       1325.9469     -1479.2141     -706.55336    
    151000   11608.916      147716.64      8000          -2788.8142      1294.9921     -1493.8221     -756.24226    
    152000   11902.795      186374.08      8000          -2836.263       1327.7747     -1508.4883     -577.88382    
    153000   11844.39       157412.11      8000          -2844.0429      1321.2595     -1522.7834     -736.79201    
    154000   12177.556      156264.51      8000          -2895.6251      1358.4247     -1537.2004     -756.93928    
    155000   11532.133      156344.94      8000          -2837.8469      1286.4268     -1551.4201     -770.75732    
    156000   11244.477      149028.65      8000          -2821.0561      1254.3383     -1566.7178     -822.58677    
    157000   11125.476      160747.39      8000          -2822.0581      1241.0636     -1580.9944     -778.34932    
    158000   11342.718      140694.15      8000          -2860.3851      1265.2973     -1595.0879     -892.57277    
    159000   11135.269      157561.94      8000          -2851.2037      1242.156      -1609.0477     -822.30824    
    160000   11935.693      113203.92      8000          -2954.3816      1331.4445     -1622.9371     -1057.6864    
    161000   11525.049      133182.57      8000          -2922.8256      1285.6366     -1637.189      -972.18076    
    162000   11176.853      107134.21      8000          -2897.3002      1246.7948     -1650.5054     -1115.562     
    163000   11625.117      113873.46      8000          -2961.294       1296.7993     -1664.4947     -1095.9009    
    164000   11063.433      102221.25      8000          -2912.2112      1234.1426     -1678.0686     -1167.6566    
    165000   11580.131      114390.98      8000          -2983.8472      1291.781      -1692.0662     -1120.8882    
    166000   11106.051      130380.62      8000          -2944.184       1238.8967     -1705.2872     -1054.2697    
    167000   11217.901      126289.53      8000          -2970.3188      1251.3737     -1718.945      -1088.3552    
    168000   11291.576      125969.44      8000          -2991.6456      1259.5923     -1732.0534     -1103.0618    
    169000   10941.611      104765.9       8000          -2966.0636      1220.5532     -1745.5104     -1222.3925    
    170000   10937.891      102219.14      8000          -2979.2183      1220.1382     -1759.0801     -1248.6787    
    171000   10765.598      103829.45      8000          -2973.4407      1200.9187     -1772.522      -1254.08      
    172000   10287.7        82535.997      8000          -2932.6503      1147.6085     -1785.0419     -1372.9225    
    173000   10535.639      97816.002      8000          -2972.9996      1175.2664     -1797.7332     -1309.3176    
    174000   10666.42       101018.63      8000          -3000.1567      1189.8552     -1810.3016     -1305.8946    
    175000   11018.882      100779.13      8000          -3052.5389      1229.1729     -1823.366      -1320.1549    
    176000   10492.532      90378.112      8000          -3006.3155      1170.4577     -1835.8578     -1384.5811    
    177000   10972.096      123895.33      8000          -3072.1249      1223.9538     -1848.1712     -1229.5361    
    178000   10286.389      94695.966      8000          -3008.0117      1147.4622     -1860.5495     -1387.7129    
    179000   10455.117      107521.2       8000          -3038.7998      1166.2841     -1872.5157     -1335.6401    
    180000   10244.024      79964.285      8000          -3027.176       1142.7363     -1884.4397     -1485.1614    
    181000   10045.057      73645.865      8000          -3016.9579      1120.5412     -1896.4167     -1528.6876    
    182000   9902.3624      102224.17      8000          -3013.2927      1104.6234     -1908.6693     -1398.2428    
    183000   10178.035      88506.504      8000          -3055.7981      1135.3751     -1920.423      -1478.4916    
    184000   10192.388      50464.133      8000          -3069.4672      1136.9762     -1932.4909     -1680.513     
    185000   10214.266      65683.792      8000          -3083.7683      1139.4168     -1944.3515     -1616.3787    
    186000   9984.0439      67488.092      8000          -3069.8674      1113.7351     -1956.1322     -1619.1502    
    187000   9748.2443      47646.559      8000          -3054.852       1087.4313     -1967.4207     -1729.5115    
    188000   9809.8896      53100.451      8000          -3073.477       1094.3079     -1979.169      -1714.0274    
    189000   10135.565      30273.779      8000          -3121.3729      1130.6375     -1990.7354     -1839.5722    
    190000   9853.0628      62256.393      8000          -3101.2793      1099.124      -2002.1553     -1691.2962    
    191000   9780.0587      84961.094      8000          -3104.4996      1090.9803     -2013.5194     -1589.291     
    192000   9780.027       59557.349      8000          -3115.5435      1090.9767     -2024.5668     -1727.1846    
    193000   9627.946       97799.856      8000          -3109.8534      1074.0119     -2035.8415     -1547.5066    
    194000   9602.7372      44117.035      8000          -3118.1814      1071.1998     -2046.9816     -1826.6961    
    195000   9301.8926      93743.262      8000          -3095.8745      1037.6401     -2058.2344     -1590.1548    
    196000   9361.9605      67100.554      8000          -3113.4882      1044.3408     -2069.1474     -1734.1004    
    197000   9419.0404      45051.675      8000          -3130.5485      1050.7081     -2079.8404     -1854.888     
    198000   9652.7202      68681.324      8000          -3167.5862      1076.7755     -2090.8107     -1747.8706    
    199000   9362.9404      61956.688      8000          -3145.9863      1044.4501     -2101.5362     -1792.1736    
    200000   9603.2779      83973.893      8000          -3183.5616      1071.2601     -2112.3015     -1693.0024    
    201000   9514.2541      52409.773      8000          -3184.161       1061.3294     -2122.8316     -1861.1387    
    202000   9161.267       23513.359      8000          -3155.2422      1021.9531     -2133.2891     -2015.882     
    203000   9137.0152      1355.9713      8000          -3163.1375      1019.2478     -2143.8897     -2137.1191    
    204000   9335.4074      33484.637      8000          -3195.6838      1041.3787     -2154.305      -1987.1093    
    205000   9307.5807      17950.688      8000          -3203.0523      1038.2746     -2164.7777     -2075.1462    
    206000   9250.5706      16715.99       8000          -3207.1549      1031.9151     -2175.2398     -2091.7734    
    207000   9034.4738      9701.4932      8000          -3193.0827      1007.8091     -2185.2735     -2136.832     
    208000   9428.8261      24332.208      8000          -3247.7734      1051.7997     -2195.9736     -2074.4779    
    209000   8960.4533      26839.922      8000          -3205.7673      999.55205     -2206.2153     -2072.198     
    210000   8908.4294      42297.772      8000          -3210.0624      993.74871     -2216.3137     -2005.1121    
    211000   8891.5356      14902.813      8000          -3218.0778      991.86418     -2226.2136     -2151.8008    
    212000   9043.171       10498.359      8000          -3245.2236      1008.7793     -2236.4443     -2184.0238    
    213000   9013.7502     -18802.439      8000          -3251.748       1005.4974     -2246.2506     -2340.135     
    214000   8997.3371      10152.515      8000          -3260.1409      1003.6665     -2256.4744     -2205.7808    
    215000   9013.9351      32458.346      8000          -3272.0075      1005.518      -2266.4895     -2104.4182    
    216000   9000.6485      4956.4106      8000          -3280.3078      1004.0359     -2276.2719     -2251.5235    
    217000   8642.8367      14527.354      8000          -3250.1462      964.12144     -2286.0248     -2213.4867    
    218000   8698.5819      18818.773      8000          -3266.3293      970.3399      -2295.9894     -2202.0233    
    219000   8958.4216     -2917.9503      8000          -3305.1845      999.32541     -2305.8591     -2320.4291    
    220000   8881.5515     -4714.1721      8000          -3306.2919      990.75044     -2315.5415     -2339.0803    
    221000   8493.5823      29216.163      8000          -3272.4372      947.47189     -2324.9653     -2179.0829    
    222000   8703.1363     -5866.9169      8000          -3305.2507      970.84795     -2334.4027     -2363.6975    
    223000   8538.914      -5732.9684      8000          -3296.5954      952.52871     -2344.0667     -2372.6926    
    224000   8438.3014     -1575.6594      8000          -3294.7009      941.30522     -2353.3957     -2361.2632    
    225000   8329.0895     -28119.708      8000          -3292.0302      929.12247     -2362.9077     -2503.3153    
    226000   8539.4634     -38408.557      8000          -3324.8426      952.58999     -2372.2526     -2564.0345    
    227000   8410.7317     -29011.767      8000          -3319.889       938.22978     -2381.6592     -2526.521     
    228000   8594.6322      23953.044      8000          -3349.9627      958.74416     -2391.2185     -2271.616     
    229000   8373.797      -22068.559      8000          -3334.4768      934.10966     -2400.3671     -2510.56      
    230000   8452.4967     -51702.245      8000          -3352.3755      942.88873     -2409.4867     -2667.6468    
    231000   8515.449       4459.0646      8000          -3368.6125      949.91115     -2418.7013     -2396.4363    
    232000   8265.8391      12949.572      8000          -3349.7777      922.06679     -2427.7109     -2363.051     
    233000   8358.1056     -5671.5705      8000          -3369.1934      932.35926     -2436.8342     -2465.1535    
    234000   7952.2537     -55028.421      8000          -3332.8151      887.08587     -2445.7293     -2720.4976    
    235000   7986.6381     -13876.631      8000          -3345.4785      890.9215      -2454.5571     -2523.846     
    236000   8390.6784     -41247.061      8000          -3399.4234      935.99281     -2463.4306     -2669.3858    
    237000   8228.4178     -36926.77       8000          -3390.1366      917.89238     -2472.2443     -2656.6273    
    238000   8290.0305     -25341.205      8000          -3405.6569      924.76538     -2480.8915     -2607.4254    
    239000   8050.6435     -39879.441      8000          -3387.6211      898.0614      -2489.5597     -2688.6861    
    240000   7929.7429     -24172.937      8000          -3382.9768      884.57476     -2498.4021     -2619.1026    
    241000   7967.3837      11501.282      8000          -3395.7358      888.77364     -2506.9622     -2449.5339    
    242000   7792.6202     -11352.185      8000          -3384.8477      869.27851     -2515.5692     -2572.253     
    243000   7813.1026     -34101.069      8000          -3395.5773      871.56336     -2524.014      -2694.2877    
    244000   7790.4715     -20818.439      8000          -3401.353       869.03883     -2532.3142     -2636.265     
    245000   7671.6782     -9254.2095      8000          -3396.4236      855.78725     -2540.6364     -2586.8445    
    246000   7604.0864     -36314.534      8000          -3397.1811      848.24729     -2548.9338     -2730.2598    
    247000   7752.2376     -14837.688      8000          -3421.9539      864.77378     -2557.1801     -2631.2678    
    248000   7693.2174     -70948.648      8000          -3423.5535      858.18998     -2565.3635     -2919.6249    
    249000   7399.1068     -45707.873      8000          -3398.8197      825.3815      -2573.4382     -2801.6671    
    250000   7534.6749     -45515.895      8000          -3421.8823      840.50432     -2581.378      -2808.6483    
    251000   7456.1389     -15489.719      8000          -3421.0572      831.74352     -2589.3137     -2666.6571    
    252000   7541.4891     -45759.673      8000          -3438.6352      841.26446     -2597.3708     -2825.8583    
    253000   7460.2127     -50870.408      8000          -3437.1325      832.19796     -2604.9346     -2858.9411    
    254000   7217.9747      9186.6295      8000          -3417.8273      805.17595     -2612.6513     -2566.7806    
    255000   7728.7989     -34027.888      8000          -3482.6896      862.15916     -2620.5305     -2790.4388    
    256000   7357.3605     -43442.201      8000          -3448.8791      820.72464     -2628.1544     -2845.0704    
    257000   7420.9559     -26081.37       8000          -3463.5535      827.8188      -2635.7347     -2765.9644    
    258000   7304.562      -56841.844      8000          -3458.153       814.83488     -2643.3181     -2927.1412    
    259000   7233.5721     -26484.955      8000          -3457.6944      806.91585     -2650.7785     -2783.0234    
    260000   7414.3194     -38217.073      8000          -3485.3852      827.07849     -2658.3067     -2849.1325    
    261000   6969.5949     -78058.614      8000          -3443.0465      777.4688      -2665.5777     -3055.3406    
    262000   7547.2313     -27278.07       8000          -3515.023       841.90501     -2673.118      -2809.323     
    263000   7262.1828     -57765.951      8000          -3490.4232      810.10742     -2680.3158     -2968.7532    
    264000   7397.8185     -34883.971      8000          -3512.982       825.23778     -2687.7442     -2861.9271    
    265000   7049.6792     -25111.333      8000          -3481.1696      786.40233     -2694.7673     -2820.1534    
    266000   7151.4065     -37938.555      8000          -3499.7124      797.75016     -2701.9622     -2891.3973    
    267000   7122.9061     -33209.361      8000          -3503.768       794.57089     -2709.1971     -2875.0183    
    268000   7115.2073     -56286.12       8000          -3510.0043      793.71208     -2716.2922     -2997.3405    
    269000   6740.2826     -59230.467      8000          -3475.1019      751.88867     -2723.2132     -3018.9632    
    270000   7175.6619     -38660.785      8000          -3530.5769      800.45588     -2730.121      -2923.1623    
    271000   6997.6708     -47147.804      8000          -3517.5767      780.60071     -2736.976      -2972.3947    
    272000   6657.4199     -45337.827      8000          -3486.4843      742.64521     -2743.8391     -2970.2203    
    273000   6817.9113     -59212.348      8000          -3511.139       760.54827     -2750.5907     -3046.2502    
    274000   7020.5966     -67315.491      8000          -3540.5817      783.15812     -2757.4236     -3093.5438    
    275000   6510.0064     -43109.385      8000          -3490.2673      726.20101     -2764.0663     -2979.3204    
    276000   6865.824      -38113.767      8000          -3536.8776      765.893       -2770.9846     -2961.2946    
    277000   6880.8605     -23044.068      8000          -3545.1953      767.57035     -2777.625      -2892.6888    
    278000   6920.3029     -50632.241      8000          -3556.1599      771.9702      -2784.1897     -3037.007     
    279000   6676.6451     -67949.3        8000          -3535.7314      744.78981     -2790.9415     -3130.2265    
    280000   6786.1643     -81811.091      8000          -3554.2871      757.00684     -2797.2802     -3205.78      
    281000   6763.9392     -66198.527      8000          -3558.4143      754.5276      -2803.8867     -3134.4297    
    282000   6590.2649     -60002.884      8000          -3545.3554      735.15397     -2810.2015     -3109.8083    
    283000   6843.9138     -39380.752      8000          -3580.1107      763.44888     -2816.6618     -3013.2981    
    284000   6725.1649     -71153.769      8000          -3573.2465      750.20227     -2823.0443     -3178.3298    
    285000   6683.3967     -57377.596      8000          -3574.8983      745.54296     -2829.3553     -3115.8535    
    286000   6587.7008     -72188.695      8000          -3570.5983      734.86794     -2835.7304     -3196.1835    
    287000   6459.6585     -42290.692      8000          -3562.7172      720.58463     -2842.1326     -3053.2988    
    288000   6277.0963     -64063.542      8000          -3548.4858      700.21954     -2848.2663     -3168.1489    
    289000   6477.1309     -86595.64       8000          -3577.1475      722.5337      -2854.6138     -3287.0039    
    290000   6332.4408     -20919.028      8000          -3567.2516      706.3933      -2860.8583     -2965.3114    
    291000   6289.6958     -53305.553      8000          -3568.675       701.62503     -2867.0499     -3133.2156    
    292000   6353.0876     -71915.974      8000          -3581.835       708.69649     -2873.1385     -3232.2299    
    293000   6504.567      -42848.998      8000          -3604.7679      725.59423     -2879.1737     -3093.1277    
    294000   6561.5265     -45619.464      8000          -3617.3742      731.94816     -2885.426      -3113.2135    
    295000   6194.2625     -70142.416      8000          -3582.4151      690.97931     -2891.4358     -3241.6715    
    296000   6335.1289     -90379.304      8000          -3604.0765      706.69316     -2897.3833     -3348.666     
    297000   6424.4877     -36387.912      8000          -3620.0914      716.66127     -2903.4301     -3085.1225    
    298000   6233.4519     -46239.874      8000          -3604.6497      695.35094     -2909.2988     -3140.1841    
    299000   6463.4401     -93805.358      8000          -3636.3792      721.00647     -2915.3727     -3383.7623    
    300000   6056.317      -63912.264      8000          -3596.729       675.59128     -2921.1377     -3240.2649    
    301000   6344.2797     -87976.859      8000          -3634.7614      707.71395     -2927.0474     -3366.3341    
    302000   6078.7179     -65903.572      8000          -3610.8966      678.09013     -2932.8065     -3261.8767    
    303000   6275.627      -38194.39       8000          -3638.7132      700.05564     -2938.6576     -3129.3701    
    304000   6274.8444     -68301.799      8000          -3644.4695      699.96834     -2944.5012     -3285.5462    
    305000   6193.9344     -62763.28       8000          -3641.1908      690.94271     -2950.2481     -3263.6382    
    306000   6041.7904     -72536.437      8000          -3629.9996      673.97081     -2956.0288     -3318.2183    
    307000   5974.0779     -75246.476      8000          -3628.0457      666.41738     -2961.6284     -3337.3496    
    308000   6197.5051     -80444.668      8000          -3658.6867      691.34102     -2967.3456     -3369.0226    
    309000   5982.795      -88692.263      8000          -3640.3106      667.38979     -2972.9208     -3415.7797    
    310000   5840.2322     -83580.653      8000          -3629.8865      651.48669     -2978.3998     -3395.7354    
    311000   5806.51       -87267          8000          -3631.6636      647.72493     -2983.9387     -3419.6809    
    312000   5948.7159     -44194.748      8000          -3652.9535      663.58821     -2989.3653     -3210.0388    
    313000   5777.7138     -62726.283      8000          -3639.2678      644.51267     -2994.7551     -3307.9605    
    314000   6009.1716     -95662.741      8000          -3670.6241      670.33214     -3000.2919     -3477.9559    
    315000   5841.6679     -87153.776      8000          -3657.1697      651.64684     -3005.5229     -3440.6998    
    316000   5763.5895     -70942.661      8000          -3653.8212      642.93708     -3010.8841     -3365.1155    
    317000   6061.6705     -113104.25      8000          -3692.5838      676.18847     -3016.3953     -3581.1484    
    318000   5781.9341     -70780.233      8000          -3666.6202      644.98345     -3021.6368     -3375.0572    
    319000   5846.006      -84645.951      8000          -3678.9496      652.13077     -3026.8189     -3449.4737    
    320000   5745.4956     -105518.61      8000          -3673.0504      640.91869     -3032.1317     -3559.0081    
    321000   5739.4706     -89980.013      8000          -3677.4886      640.24658     -3037.242      -3486.5309    
    322000   5665.6319     -62159.59       8000          -3674.4596      632.00976     -3042.4499     -3352.8256    
    323000   5566.2926     -72616.36       8000          -3668.626       620.92832     -3047.6976     -3410.2862    
    324000   5663.7352     -88426.686      8000          -3684.689       631.79818     -3052.8908     -3494.4236    
    325000   5702.5302     -77243.524      8000          -3694.3278      636.12582     -3058.202      -3443.895     
    326000   5722.4443     -104725.82      8000          -3701.5522      638.34727     -3063.205      -3586.1228    
    327000   5698.6562     -86060.799      8000          -3703.9576      635.69368     -3068.2639     -3497.9834    
    328000   5543.7183     -68941.943      8000          -3691.7883      618.41012     -3073.3782     -3417.6196    
    329000   5640.1014     -97363.452      8000          -3707.7428      629.16181     -3078.581      -3564.7369    
    330000   5228.9455     -82591.97       8000          -3666.8084      583.29674     -3083.5116     -3495.9105    
    331000   5672.7073     -84214.862      8000          -3721.2781      632.79904     -3088.4791     -3508.9814    
    332000   5692.6932     -55338.276      8000          -3728.5903      635.0285      -3093.5618     -3369.8773    
    333000   5583.0625     -66774.836      8000          -3721.2001      622.79903     -3098.4011     -3431.8217    
    334000   5705.3157     -18322.139      8000          -3739.9563      636.43656     -3103.5197     -3195.006     
    335000   5606.1206     -58243.048      8000          -3733.8583      625.37119     -3108.4871     -3399.3067    
    336000   5382.9568     -94224.843      8000          -3713.7091      600.47694     -3113.2322     -3583.7164    
    337000   5306.9997     -118841.81      8000          -3710.0815      592.00381     -3118.0777     -3711.4796    
    338000   5582.3519     -101926.88      8000          -3745.5353      622.71976     -3122.8156     -3631.7577    
    339000   5384.9971     -59371.49       8000          -3728.3707      600.70453     -3127.6662     -3424.1203    
    340000   5603.1845     -84932.417      8000          -3757.5981      625.04367     -3132.5545     -3556.6397    
    341000   5615.0337     -75868.567      8000          -3763.5588      626.36546     -3137.1933     -3516.0208    
    342000   5640.7829     -42365.162      8000          -3771.2438      629.23782     -3142.006      -3353.544     
    343000   5626.0126     -65439.173      8000          -3774.3858      627.59018     -3146.7956     -3473.547     
    344000   5498.3348     -60006.82       8000          -3764.9482      613.34752     -3151.6007     -3451.2272    
    345000   5232.1062     -85104.051      8000          -3739.8859      583.64932     -3156.2366     -3581.1788    
    346000   5463.1793     -46640.882      8000          -3770.3354      609.42587     -3160.9095     -3393.7972    
    347000   5707.8227     -88031.115      8000          -3802.348       636.71622     -3165.6318     -3605.1894    
    348000   5356.7182     -64737.399      8000          -3767.7635      597.54997     -3170.2135     -3493.4608    
    349000   5392.672      -62072.619      8000          -3776.4256      601.56068     -3174.8649     -3484.8064    
    350000   5373.2744     -73595.743      8000          -3778.8958      599.39685     -3179.499      -3546.9778    
    351000   5356.9645     -64114.097      8000          -3781.6549      597.57746     -3184.0774     -3504.2124    
    352000   5256.467      -47988.627      8000          -3774.9137      586.3668      -3188.5469     -3428.1641    
    353000   5369.4021     -57603.393      8000          -3791.9605      598.96488     -3192.9956     -3480.6213    
    354000   5195.6046     -86336.662      8000          -3777.109       579.57752     -3197.5315     -3628.6283    
    355000   5113.5922     -72854.738      8000          -3772.4731      570.42891     -3202.0442     -3565.823     
    356000   5100.2992     -87344.205      8000          -3775.3699      568.94606     -3206.4239     -3642.5516    
    357000   5183.5645     -98735.103      8000          -3789.064       578.23443     -3210.8296     -3703.8344    
    358000   5278.2153     -51383.854      8000          -3804.1184      588.79287     -3215.3255     -3471.8958    
    359000   5002.584      -102512.67      8000          -3777.7266      558.04578     -3219.6809     -3731.5479    
    360000   5067.2594     -64283.781      8000          -3789.3232      565.26041     -3224.0628     -3545.0451    
    361000   5299.344      -65164.226      8000          -3819.4066      591.1498      -3228.2568     -3553.6353    
    362000   4968.0052     -80405.412      8000          -3786.6647      554.18845     -3232.4763     -3633.9572    
    363000   4861.7441     -82691.148      8000          -3779.0365      542.33487     -3236.7017     -3649.5957    
    364000   5056.1876     -76043.355      8000          -3804.9875      564.02534     -3240.9622     -3620.6625    
    365000   5049.9273     -75625.94       8000          -3808.449       563.327       -3245.122      -3622.7381    
    366000   5027.3465     -36130.098      8000          -3810.0448      560.80806     -3249.2368     -3429.6419    
    367000   5036.3857     -70918.474      8000          -3815.3384      561.8164      -3253.522      -3607.6327    
    368000   5007.6202     -76556.814      8000          -3816.2292      558.60757     -3257.6216     -3639.8857    
    369000   5267.7726     -84003.272      8000          -3849.426       587.62796     -3261.798      -3681.2438    
    370000   5037.3607     -78814.883      8000          -3827.8197      561.92517     -3265.8946     -3659.4336    
    371000   4752.2812     -66002.442      8000          -3800.084       530.12413     -3269.9598     -3599.5237    
    372000   4938.6424     -69062.319      8000          -3824.9934      550.913       -3274.0804     -3618.9229    
    373000   4943.7392     -103391.68      8000          -3829.6356      551.48155     -3278.154      -3794.4101    
    374000   4744.66       -93968.936      8000          -3811.4461      529.27396     -3282.1722     -3751.3786    
    375000   4932.2153     -125822.08      8000          -3836.4257      550.19604     -3286.2297     -3914.4854    
    376000   5123.4247     -61330.529      8000          -3861.8773      571.52573     -3290.3516     -3596.5876    
    377000   5029.6925     -46303.343      8000          -3855.4178      561.06977     -3294.348      -3525.5502    
    378000   4904.7216     -70083.827      8000          -3845.3441      547.12908     -3298.2151     -3648.1582    
    379000   4916.6425     -65275.136      8000          -3850.7704      548.45887     -3302.3115     -3628.2438    
    380000   4852.7347     -95461.992      8000          -3847.6574      541.32986     -3306.3276     -3782.9891    
    381000   4810.0385     -77505.659      8000          -3846.7277      536.56703     -3310.1607     -3697.1625    
    382000   4913.4617     -40819.213      8000          -3862.2713      548.10404     -3314.1673     -3517.9861    
    383000   4837.0034     -72420.419      8000          -3857.5058      539.57501     -3317.9308     -3679.541     
    384000   4678.4581     -49635.154      8000          -3843.6891      521.88904     -3321.8001     -3569.6387    
    385000   4864.9167     -60504.617      8000          -3868.3828      542.68878     -3325.6941     -3627.8062    
    386000   4829.3964     -87616.5        8000          -3868.3487      538.72644     -3329.6223     -3767.1097    
    387000   4633.9039     -46754.657      8000          -3850.2568      516.91895     -3333.3379     -3566.7936    
    388000   4841.4518     -58319.36       8000          -3877.2431      540.07123     -3337.1718     -3628.3725    
    389000   4861.0275     -60102.963      8000          -3883.2007      542.25493     -3340.9457     -3641.0523    
    390000   4707.5208     -65606.833      8000          -3869.8223      525.13103     -3344.6913     -3672.2798    
    391000   4682.4806     -54428.12       8000          -3870.6695      522.33776     -3348.3318     -3620.1027    
    392000   4657.0734     -40455.968      8000          -3871.5807      519.50355     -3352.0771     -3554.0822    
    393000   4626.5711     -44015.108      8000          -3871.8048      516.10097     -3355.7039     -3575.4804    
    394000   4681.2946     -83812.749      8000          -3881.5264      522.20546     -3359.321      -3777.8154    
    395000   4724.2488     -62755.47       8000          -3890.0729      526.99706     -3363.0759     -3676.4269    
    396000   4721.2724     -77334.69       8000          -3893.3699      526.66505     -3366.7048     -3752.853     
    397000   4487.7518     -64261.585      8000          -3870.9206      500.61547     -3370.3051     -3691.1766    
    398000   4614.2798     -75565.87       8000          -3888.5925      514.72986     -3373.8627     -3751.1788    
    399000   4536.8333     -61101.65       8000          -3883.5277      506.09059     -3377.4371     -3682.5303    
    400000   4714.049      -78980.953      8000          -3906.787       525.85926     -3380.9278     -3775.2961    
    401000   4597.5114     -59506.566      8000          -3897.319       512.85931     -3384.4597     -3681.5883    
    402000   4537.4957     -78553.358      8000          -3894.2471      506.16448     -3388.0826     -3780.3159    
    403000   4517.4315     -67537.764      8000          -3895.5538      503.92628     -3391.6275     -3728.8576    
    404000   4543.5658     -84439.148      8000          -3901.8615      506.8416      -3395.0199     -3816.6421    
    405000   4558.3413     -77520.251      8000          -3907.057       508.48984     -3398.5672     -3785.6419    
    406000   4506.0516     -94899.897      8000          -3904.6151      502.65683     -3401.9582     -3875.8131    
    407000   4628.1801     -71626.087      8000          -3921.6881      516.28046     -3405.4076     -3763.0516    
    408000   4525.3652     -76401.926      8000          -3913.6473      504.8113      -3408.836      -3790.3267    
    409000   4521.721      -57401.511      8000          -3916.7286      504.40478     -3412.3238     -3698.9415    
    410000   4610.1302     -35359.055      8000          -3930.0113      514.26697     -3415.7443     -3592.2994    
    411000   4395.3227     -52301.184      8000          -3909.3238      490.30487     -3419.0189     -3680.1696    
    412000   4396.5099     -48803.66       8000          -3912.8592      490.4373      -3422.4219     -3666.1087    
    413000   4468.836      -48023.855      8000          -3924.2433      498.50538     -3425.7379     -3665.531     
    414000   4410.1008     -87383.017      8000          -3920.9115      491.95339     -3428.9581     -3865.2797    
    415000   4323.7228     -52378.601      8000          -3914.7486      482.31779     -3432.4308     -3693.968     
    416000   4245.8349     -96659.064      8000          -3909.2209      473.62927     -3435.5916     -3918.2304    
    417000   4452.0348     -63210.318      8000          -3935.5899      496.63119     -3438.9588     -3754.581     
    418000   4390.6904     -70912.559      8000          -3932.0243      489.78812     -3442.2362     -3796.3173    
    419000   4497.8989     -62487.234      8000          -3947.2006      501.74739     -3445.4532     -3757.4649    
    420000   4273.8301     -74872.411      8000          -3925.4562      476.75218     -3448.704      -3822.5575    
    421000   4519.2837     -68837.989      8000          -3956.1292      504.1329      -3451.9963     -3795.7187    
    422000   4315.2996     -78474.531      8000          -3936.6944      481.37817     -3455.3163     -3847.1559    
    423000   4305.4133     -77348.777      8000          -3938.8134      480.27533     -3458.5381     -3844.7566    
    424000   4436.8417     -57458.153      8000          -3956.6967      494.93637     -3461.7603     -3748.6608    
    425000   4543.815      -73361.545      8000          -3971.8559      506.8694      -3464.9865     -3831.2959    
    426000   4324.5762     -91435.063      8000          -3950.5887      482.41299     -3468.1757     -3924.73      
    427000   4441.2117     -71435.556      8000          -3966.8743      495.42385     -3471.4504     -3828.143     
    428000   4447.7057     -55387.941      8000          -3970.7953      496.14826     -3474.647      -3751.2105    
    429000   4295.8005     -86682.926      8000          -3957.0172      479.20302     -3477.8142     -3910.64      
    430000   4319.8242     -50291.16       8000          -3962.8192      481.88289     -3480.9363     -3732.0505    
    431000   4344.135      -53358.591      8000          -3968.7532      484.5948      -3484.1584     -3750.589     
    432000   4314.8295     -77539.432      8000          -3968.617       481.32572     -3487.2913     -3874.4618    
    433000   4322.3013     -85459.659      8000          -3972.6614      482.15922     -3490.5022     -3917.22      
    434000   4237.1546     -57831.498      8000          -3966.2324      472.66097     -3493.5714     -3782.3361    
    435000   4225.521      -73049.556      8000          -3968.0639      471.36323     -3496.7006     -3861.4522    
    436000   4407.045      -49914.789      8000          -3991.4181      491.61251     -3499.8056     -3749.0405    
    437000   4175.5303     -53777.954      8000          -3968.6476      465.78668     -3502.8609     -3771.3854    
    438000   4233.0626     -73607.615      8000          -3978.1956      472.2045      -3505.9911     -3873.5292    
    439000   4366.5342     -60063.959      8000          -3996.1045      487.09347     -3509.0111     -3808.9229    
    440000   4394.3691     -74563.272      8000          -4002.3387      490.19849     -3512.1402     -3884.4501    
    441000   4259.0268     -85317.63       8000          -3990.2836      475.10085     -3515.1828     -3941.1914    
    442000   4438.4591     -74484.656      8000          -4013.3959      495.11679     -3518.2791     -3890.1965    
    443000   4304.5201     -54704.135      8000          -4001.4142      480.1757      -3521.2385     -3794.3876    
    444000   4258.2132     -81344.775      8000          -3999.2992      475.01009     -3524.2891     -3930.4604    
    445000   4109.2338     -70935.3        8000          -3985.6562      458.39122     -3527.265      -3881.4597    
    446000   4033.7834     -67907.604      8000          -3980.1661      449.97461     -3530.1915     -3869.2683    
    447000   4178.8639     -64698.592      8000          -3999.3368      466.15855     -3533.1782     -3856.2317    
    448000   4363.2947     -64949.081      8000          -4022.9227      486.7321      -3536.1906     -3860.4949    
    449000   4177.7377     -56640.806      8000          -4005.1633      466.03292     -3539.1304     -3821.9497    
    450000   4066.4734     -50540.484      8000          -3995.6207      453.62123     -3541.9994     -3794.3586    
    451000   4182.3859     -68900.033      8000          -4011.41        466.55145     -3544.8586     -3888.8908    
    452000   4076.6472     -73839.37       8000          -4002.537       454.75613     -3547.7808     -3916.4761    
    453000   4076.5963     -65627.934      8000          -4005.4306      454.75045     -3550.6802     -3878.3741    
    454000   4168.9007     -83904.129      8000          -4018.5854      465.04715     -3553.5383     -3972.489     
    455000   4032.111      -86988.897      8000          -4006.1385      449.78805     -3556.3505     -3990.7041    
    456000   4154.9989     -73303.574      8000          -4022.8058      463.49638     -3559.3094     -3925.3294    
    457000   4198.7599     -86641.436      8000          -4030.5518      468.37798     -3562.1739     -3994.7925    
    458000   4047.5325     -74323.026      8000          -4016.5156      451.50834     -3565.0073     -3936.1176    
    459000   4033.0688     -79859.585      8000          -4017.6236      449.89489     -3567.7287     -3966.4842    
    460000   4164.895      -51089.932      8000          -4035.1256      464.60031     -3570.5253     -3825.628     
    461000   4230.5926     -59851.032      8000          -4045.3051      471.92898     -3573.3762     -3872.2248    
    462000   4140.0576     -50310.055      8000          -4037.9622      461.82965     -3576.1325     -3827.3411    
    463000   4022.1672     -97019.07       8000          -4027.4672      448.67881     -3578.7883     -4063.2247    
    464000   3949.4337     -57454.349      8000          -4022.0067      440.56528     -3581.4414     -3868.3229    
    465000   3859.1918     -53993.89       8000          -4014.6329      430.49865     -3584.1342     -3853.7369    
    466000   4079.9689     -49454.218      8000          -4041.9818      455.12667     -3586.8551     -3833.7903    
    467000   4150.3257     -77796.843      8000          -4052.6184      462.97508     -3589.6433     -3978.0991    
    468000   4022.2079     -51512.912      8000          -4041.0341      448.68335     -3592.3508     -3849.5655    
    469000   4013.1597     -51328.059      8000          -4042.5829      447.674       -3594.9089     -3851.2006    
    470000   3991.815      -77788.215      8000          -4042.8788      445.29297     -3597.5858     -3985.9985    
    471000   3740.0053     -71219.956      8000          -4017.3951      417.20322     -3600.1919     -3955.8079    
    472000   3953.4347     -73711.941      8000          -4043.9737      441.0116      -3602.9621     -3971.0211    
    473000   3976.2243     -55188.045      8000          -4049.1223      443.55381     -3605.5685     -3881.1339    
    474000   3910.8581     -69998.386      8000          -4044.4768      436.2621      -3608.2147     -3957.7312    
    475000   3887.5032     -51702.836      8000          -4044.448       433.65683     -3610.7912     -3868.9542    
    476000   3904.1257     -46335.01       8000          -4048.954       435.51109     -3613.4429     -3844.8032    
    477000   3902.1856     -59660.755      8000          -4051.3734      435.29468     -3616.0787     -3913.9773    
    478000   4072.476      -88999.223      8000          -4072.8886      454.29083     -3618.5977     -4062.9893    
    479000   3982.1252     -54485.126      8000          -4065.3823      444.21206     -3621.1702     -3893.2258    
    480000   4054.0654     -55727.454      8000          -4076.0039      452.2371      -3623.7667     -3902.0255    
    481000   3778.1103     -53941.241      8000          -4047.6718      421.45389     -3626.2179     -3895.5577    
    482000   3941.4324     -41188.044      8000          -4068.5086      439.67272     -3628.8359     -3834.4963    
    483000   3784.8573     -76171.521      8000          -4053.464       422.20653     -3631.2575     -4011.5977    
    484000   3769.5245     -51372.192      8000          -4054.2728      420.49614     -3633.7767     -3890.2887    
    485000   3779.1975     -88401.151      8000          -4057.8679      421.57516     -3636.2927     -4077.698     
    486000   4014.596      -58840.621      8000          -4086.7088      447.83422     -3638.8746     -3932.678     
    487000   3818.1494     -57781.508      8000          -4067.2402      425.92031     -3641.3199     -3929.835     
    488000   3779.0933     -85481.264      8000          -4065.2869      421.56355     -3643.7233     -4070.549     
    489000   3640.8482     -63685.941      8000          -4052.2273      406.1421      -3646.0852     -3964.0823    
    490000   3845.2176     -64166.137      8000          -4077.5427      428.93981     -3648.6029     -3968.9977    
    491000   3687.3974     -77607.559      8000          -4062.2825      411.33472     -3650.9478     -4038.4584    
    492000   3799.1447     -49741.154      8000          -4077.1809      423.80031     -3653.3806     -3901.7485    
    493000   3811.5278     -71368.08       8000          -4080.8809      425.18166     -3655.6993     -4012.0549    
    494000   3928.0199     -49858.104      8000          -4096.3816      438.17653     -3658.205      -3907.1569    
    495000   3767.0721     -84795.176      8000          -4080.8648      420.22256     -3660.6422     -4084.0421    
    496000   3841.6796     -65123.188      8000          -4091.4565      428.54514     -3662.9114     -3988.085     
    497000   3717.7116     -61213.606      8000          -4079.9745      414.71633     -3665.2582     -3970.9104    
    498000   3705.2465     -84410.989      8000          -4081.0077      413.32582     -3667.6818     -4089.1634    
    499000   3900.9138     -83801.693      8000          -4105.1562      435.15281     -3670.0034     -4088.4427    
    500000   3707.5713     -109894.48      8000          -4085.9527      413.58516     -3672.3675     -4221.0934    
    501000   3807.0277     -70701.658      8000          -4099.436       424.67967     -3674.7563     -4027.7844    
    502000   3679.7963     -67170.261      8000          -4087.452       410.48681     -3676.9652     -4012.3602    
    503000   3683.0691     -99543.317      8000          -4090.15        410.8519      -3679.2981     -4176.3386    
    504000   3533.3146     -74448.215      8000          -4075.7387      394.14656     -3681.5921     -4053.3275    
    505000   3689.7964     -86777.108      8000          -4095.4864      411.60235     -3683.8841     -4117.1802    
    506000   3714.5639     -70214.05       8000          -4100.5397      414.36519     -3686.1745     -4036.7678    
    507000   3724.635      -66643.949      8000          -4103.943       415.48864     -3688.4543     -4021.2214    
    508000   3636.4003     -96185.418      8000          -4096.3812      405.64593     -3690.7352     -4171.009     
    509000   3692.8334     -89731.915      8000          -4104.9761      411.94112     -3693.035      -4141.0851    
    510000   3760.9748     -63501.849      8000          -4114.8825      419.5424      -3695.3401     -4012.418     
    511000   3796.1394     -53355.892      8000          -4121.0254      423.46507     -3697.5604     -3963.9774    
    512000   3569.4963     -59798.388      8000          -4097.9888      398.18268     -3699.8061     -3998.3919    
    513000   3625.1307     -68836.878      8000          -4106.3522      404.38879     -3701.9634     -4045.6802    
    514000   3546.5475     -44934.557      8000          -4099.8017      395.62271     -3704.179      -3928.5465    
    515000   3723.1804     -63636.03       8000          -4121.6366      415.32638     -3706.3102     -4024.0581    
    516000   3704.9022     -77133.623      8000          -4121.8851      413.28742     -3708.5977     -4093.7419    
    517000   3722.8699     -74239.482      8000          -4126.1063      415.29174     -3710.8146     -4081.5077    
    518000   3648.8649     -75605.924      8000          -4119.9208      407.03637     -3712.8844     -4090.4005    
    519000   3576.2121     -86484.798      8000          -4113.885       398.93184     -3714.9532     -4146.7897    
    520000   3630.0371     -69268.533      8000          -4122.1541      404.9361      -3717.218      -4063.0902    
    521000   3511.1451     -62595.564      8000          -4110.8951      391.67352     -3719.2216     -4031.7742    
    522000   3632.0522     -61124.307      8000          -4126.5404      405.16089     -3721.3795     -4026.5859    
    523000   3744.2972     -55062.793      8000          -4141.1727      417.68199     -3723.4907     -3998.4307    
    524000   3483.2913     -43333.724      8000          -4114.1334      388.56639     -3725.567      -3941.9413    
    525000   3590.8424     -75874.023      8000          -4128.2084      400.56388     -3727.6445     -4106.4993    
    526000   3586.2493     -68123.538      8000          -4129.8342      400.05151     -3729.7827     -4069.9377    
    527000   3570.5049     -70403.462      8000          -4130.1362      398.29519     -3731.841      -4083.3801    
    528000   3514.3101     -64397.51       8000          -4125.879       392.02659     -3733.8524     -4055.4025    
    529000   3408.6013     -70245.107      8000          -4116.1025      380.23461     -3735.8679     -4086.6163    
    530000   3561.7833     -95695.201      8000          -4135.276       397.32229     -3737.9537     -4215.7797    
    531000   3472.3872     -50568.087      8000          -4127.2663      387.35002     -3739.9163     -3992.4133    
    532000   3496.5208     -62690.142      8000          -4131.9217      390.04216     -3741.8796     -4054.9045    
    533000   3574.7363     -66433.449      8000          -4142.7252      398.76722     -3743.958      -4075.674     
    534000   3466.7687     -72784.91       8000          -4132.6689      386.72326     -3745.9456     -4109.3758    
    535000   3449.7641     -76450.441      8000          -4132.7192      384.82638     -3747.8928     -4129.6257    
    536000   3419.0594     -82461.924      8000          -4131.2924      381.40122     -3749.8911     -4161.6406    
    537000   3416.8731     -54144.662      8000          -4132.955       381.15734     -3751.7976     -4022.1532    
    538000   3272.3064     -54996.084      8000          -4118.7407      365.03071     -3753.71       -4028.3169    
    539000   3472.6078     -66310.34       8000          -4143.0771      387.37463     -3755.7025     -4086.8038    
    540000   3376.1755     -66920.721      8000          -4134.2498      376.61746     -3757.6324     -4091.7814    
    541000   3448.1631     -86960.532      8000          -4144.1694      384.64778     -3759.5217     -4193.7337    
    542000   3490.7714     -75345.693      8000          -4150.8599      389.4008      -3761.4591     -4137.6758    
    543000   3330.2917     -55739.096      8000          -4134.8375      371.49905     -3763.3384     -4041.6553    
    544000   3339.6147     -89332.411      8000          -4137.7935      372.53904     -3765.2545     -4211.3097    
    545000   3375.5573     -62788.96       8000          -4143.6514      376.5485      -3767.1029     -4080.6213    
    546000   3472.4367     -78232.709      8000          -4156.3088      387.35554     -3768.9532     -4159.5854    
    547000   3441.7945     -75668.874      8000          -4154.7371      383.93736     -3770.7998     -4148.6302    
    548000   3433.4555     -57446.015      8000          -4155.668       383.00713     -3772.6609     -4059.5007    
    549000   3445.9221     -77739.833      8000          -4158.9397      384.3978      -3774.5419     -4162.713     
    550000   3356.9676     -69766.212      8000          -4150.7552      374.47479     -3776.2804     -4124.6376    
    551000   3203.7905     -92734.109      8000          -4135.4503      357.38765     -3778.0626     -4241.1033    
    552000   3375.4546     -89313.607      8000          -4156.4842      376.53704     -3779.9471     -4225.9085    
    553000   3501.8437     -59456.693      8000          -4172.4506      390.63593     -3781.8147     -4078.6943    
    554000   3394.8207     -87259.219      8000          -4162.2882      378.69736     -3783.5908     -4219.2942    
    555000   3299.6567     -72913.865      8000          -4153.4167      368.08167     -3785.3351     -4149.4091    
    556000   3265.9337     -76498.191      8000          -4151.4125      364.31982     -3787.0927     -4169.064     
    557000   3243.6317     -64888.895      8000          -4150.6721      361.832       -3788.8401     -4112.8438    
    558000   3344.4665     -74422.737      8000          -4163.7089      373.08027     -3790.6287     -4162.2369    
    559000   3330.5241     -76688.117      8000          -4163.9196      371.52497     -3792.3947     -4175.3143    
    560000   3274.0956     -70023.318      8000          -4159.3025      365.23029     -3794.0722     -4143.7132    
    561000   3262.4766     -81214.801      8000          -4159.7055      363.93417     -3795.7713     -4201.2937    
    562000   3283.855      -82411.353      8000          -4163.7916      366.31897     -3797.4726     -4208.9696    
    563000   3323.6488     -77733.786      8000          -4169.9916      370.75803     -3799.2336     -4187.3745    
    564000   3222.1104     -81887.96       8000          -4160.352       359.43126     -3800.9207     -4209.8043    
    565000   3314.4276     -72447.051      8000          -4172.3793      369.72939     -3802.6499     -4164.393     
    566000   3201.2287     -60373.433      8000          -4161.3441      357.10188     -3804.2422     -4105.6993    
    567000   3429.4123     -92502.138      8000          -4188.5449      382.5561      -3805.9888     -4267.8712    
    568000   3216.5486     -84273.219      8000          -4166.4008      358.81083     -3807.5899     -4228.3836    
    569000   3288.6562     -80229.843      8000          -4176.1358      366.85454     -3809.2812     -4209.8855    
    570000   3356.1818     -56574.234      8000          -4185.3296      374.38713     -3810.9424     -4093.4293    
    571000   3343.0022     -48344.667      8000          -4185.4951      372.91692     -3812.5781     -4053.9731    
    572000   3278.8347     -50792.029      8000          -4179.9817      365.75894     -3814.2228     -4067.8379    
    573000   3126.7736     -56822.085      8000          -4164.5592      348.79631     -3815.7629     -4099.4874    
    574000   3267.4862     -66555.729      8000          -4181.9142      364.493       -3817.4212     -4149.7478    
    575000   3109.6673     -58058.952      8000          -4165.8225      346.88806     -3818.9345     -4108.8349    
    576000   3318.4517     -73139.375      8000          -4190.7848      370.17828     -3820.6065     -4185.8066    
    577000   3236.2408     -44059.133      8000          -4183.1586      361.00753     -3822.1511     -4042.1475    
    578000   3220.925      -76923.643      8000          -4183.0087      359.29904     -3823.7096     -4207.8054    
    579000   3270.2613     -60924.144      8000          -4190.0876      364.80257     -3825.285      -4129.4919    
    580000   3263.1595     -73307.511      8000          -4190.79        364.01035     -3826.7796     -4192.8192    
    581000   3227.5333     -62377.688      8000          -4188.309       360.0362      -3828.2728     -4139.7376    
    582000   3243.8123     -90106.286      8000          -4191.6647      361.85214     -3829.8126     -4279.732     
    583000   3175.9826     -77985.273      8000          -4185.632       354.28564     -3831.3464     -4220.7431    
    584000   3092.9163     -74283.286      8000          -4177.8517      345.01947     -3832.8323     -4203.7441    
    585000   3183.7856     -75268.536      8000          -4189.5357      355.15607     -3834.3796     -4210.211     
    586000   3176.711      -88328.661      8000          -4190.2026      354.3669      -3835.8357     -4276.879     
    587000   3292.5443     -69655.381      8000          -4204.7017      367.28828     -3837.4135     -4185.2172    
    588000   3138.5046     -63217.848      8000          -4188.9331      350.10491     -3838.8282     -4154.488     
    589000   3241.6396     -88297.826      8000          -4201.944       361.60978     -3840.3342     -4281.2236    
    590000   3193.6618     -64322.772      8000          -4198.1014      356.25778     -3841.8437     -4163.0206    
    591000   3227.8259     -55380.533      8000          -4203.3814      360.06884     -3843.3126     -4119.8391    
    592000   3197.5653     -64432.271      8000          -4201.4594      356.69322     -3844.7662     -4166.4899    
    593000   3044.0009     -71656.9        8000          -4185.7379      339.56288     -3846.175      -4203.9728    
    594000   3130.0487     -107400.51      8000          -4196.872       349.16165     -3847.7103     -4383.9834    
    595000   3203.7535     -59312.766      8000          -4206.5628      357.38352     -3849.1793     -4145.3402    
    596000   3057.8511     -75213.107      8000          -4191.6828      341.10789     -3850.5749     -4226.1296    
    597000   3277.1971     -79252.916      8000          -4217.6244      365.57627     -3852.0482     -4247.7744    
    598000   3253.9228     -67793.357      8000          -4216.4348      362.97998     -3853.4548     -4191.9611    
    599000   3210.6269     -62823.414      8000          -4212.9704      358.15027     -3854.8201     -4168.5105    
    600000   3031.2346     -64116.572      8000          -4194.3337      338.13878     -3856.1949     -4176.3423    
    601000   3100.3199     -100123.41      8000          -4203.4325      345.84535     -3857.5872     -4357.5242    
    602000   3115.1826     -62531.432      8000          -4206.4947      347.50331     -3858.9914     -4171.2238    
    603000   3221.8208     -65691.163      8000          -4219.839       359.39896     -3860.4401     -4188.4497    
    604000   3084.0481     -80090.248      8000          -4205.8164      344.03021     -3861.7862     -4261.6934    
    605000   3103.2444     -81139.329      8000          -4209.3378      346.17158     -3863.1662     -4268.3117    
    606000   2954.5299     -83126.417      8000          -4194.0627      329.58226     -3864.4805     -4279.5479    
    607000   2966.5877     -91892.398      8000          -4196.7677      330.92732     -3865.8404     -4324.6782    
    608000   3120.0844     -84097.604      8000          -4215.2981      348.05011     -3867.248      -4287.1648    
    609000   3089.1219     -101917.44      8000          -4213.2077      344.5962      -3868.6115     -4377.5064    
    610000   3102.4143     -50827.878      8000          -4216.0403      346.07898     -3869.9613     -4123.7554    
    611000   3007.4046     -78445.958      8000          -4206.6982      335.48051     -3871.2177     -4262.9147    
    612000   3017.2126     -81655.45       8000          -4209.1525      336.5746      -3872.5778     -4280.3005    
    613000   2951.3675     -90090.626      8000          -4203.1202      329.22948     -3873.8907     -4323.7319    
    614000   3080.5871     -95122.638      8000          -4218.8852      343.64412     -3875.241      -4350.2081    
    615000   3108.9153     -71045.767      8000          -4223.3469      346.80418     -3876.5427     -4231.2889    
    616000   3150.3141     -85438.683      8000          -4229.2746      351.42228     -3877.8524     -4304.4655    
    617000   3054.2153     -98213.294      8000          -4219.7688      340.70231     -3879.0665     -4369.4659    
    618000   3132.6608     -60730.69       8000          -4229.8617      349.45303     -3880.4087     -4183.6496    
    619000   3109.2642     -57850.134      8000          -4228.4804      346.84311     -3881.6373     -4170.495     
    620000   3061.1442     -69880.974      8000          -4224.354       341.47524     -3882.8788     -4231.809     
    621000   3023.1635     -93402.386      8000          -4221.3789      337.23844     -3884.1405     -4350.518     
    622000   3033.3312     -74908.132      8000          -4223.7564      338.37266     -3885.3838     -4259.4156    
    623000   3031.2103     -55864.394      8000          -4224.8117      338.13607     -3886.6756     -4165.6181    
    624000   3017.7481     -70938.475      8000          -4224.502       336.63435     -3887.8676     -4242.0782    
    625000   3047.3035     -83979.01       8000          -4229.0461      339.93129     -3889.1148     -4308.4394    
    626000   3040.9024     -76934.349      8000          -4229.5747      339.21724     -3890.3574     -4274.5066    
    627000   2976.4048     -39433.446      8000          -4223.5484      332.02244     -3891.526      -4088.4253    
    628000   2914.5867     -67209.644      8000          -4217.8197      325.12653     -3892.6932     -4228.2849    
    629000   3081.3699     -49086.317      8000          -4237.6801      343.73145     -3893.9487     -4139.0468    
    630000   3048.9475     -61567.815      8000          -4235.2387      340.11468     -3895.124      -4202.5449    
    631000   2958.4788     -72989.558      8000          -4226.3185      330.02276     -3896.2958     -4260.7478    
    632000   2960.6921     -78873.024      8000          -4227.7114      330.26966     -3897.4418     -4291.2711    
    633000   2971.997      -53100.61       8000          -4230.111       331.53074     -3898.5802     -4163.7226    
    634000   2861.8793     -69511.643      8000          -4218.9566      319.24694     -3899.7097     -4246.7957    
    635000   3022.6337     -93473.21       8000          -4238.1073      337.17934     -3900.9279     -4367.6591    
    636000   2989.3503     -71103.155      8000          -4235.5725      333.46652     -3902.106      -4257.1388    
    637000   3096.5633     -74877.267      8000          -4248.672       345.4263      -3903.2457     -4277.1234    
    638000   2968.3992     -67603.183      8000          -4235.4869      331.12939     -3904.3576     -4241.9143    
    639000   2909.4558     -39966.96       8000          -4229.9589      324.55418     -3905.4047     -4104.9681    
    640000   2872.1296     -89163.067      8000          -4226.9424      320.39038     -3906.552      -4351.7618    
    641000   2957.1239     -60419.758      8000          -4237.4645      329.87162     -3907.5929     -4209.2813    
    642000   2920.1526     -77083.444      8000          -4234.4402      325.74742     -3908.6928     -4293.5864    
    643000   2938.2944     -94231.486      8000          -4237.5739      327.77116     -3909.8028     -4380.3201    
    644000   2932.2599     -66636.676      8000          -4237.9641      327.09801     -3910.8661     -4243.5969    
    645000   2934.0727     -89575.875      8000          -4239.2045      327.30023     -3911.9043     -4359.1752    
    646000   2920.4465     -73321.564      8000          -4238.8247      325.7802      -3913.0445     -4279.1543    
    647000   2956.6951     -88146.198      8000          -4243.8999      329.82379     -3914.0761     -4354.2084    
    648000   2908.8244     -106331.32      8000          -4239.5769      324.48374     -3915.0932     -4446.0276    
    649000   2995.3336     -76474.159      8000          -4250.332       334.13397     -3916.198      -4298.0494    
    650000   2919.287      -79661.97       8000          -4242.9033      325.65086     -3917.2524     -4315.0212    
    651000   3041.3379     -86406.789      8000          -4257.5851      339.26582     -3918.3193     -4349.7663    
    652000   2937.7362     -61208.641      8000          -4247.001       327.7089      -3919.2921     -4224.9196    
    653000   2914.3391     -61243.523      8000          -4245.399       325.09891     -3920.3        -4226.1017    
    654000   2902.3057     -90528.515      8000          -4245.1139      323.75657     -3921.3573     -4373.385     
    655000   2965.6255     -86870.541      8000          -4253.1192      330.81999     -3922.2992     -4356.0619    
    656000   3021.3884     -92952.519      8000          -4260.3863      337.04042     -3923.3458     -4387.4771    
    657000   2897.8935     -80149.107      8000          -4247.6235      323.26438     -3924.3591     -4324.5603    
    658000   2957.7751     -60831.456      8000          -4255.268       329.94426     -3925.3237     -4229.0678    
    659000   2872.9193     -81356.924      8000          -4246.7357      320.47847     -3926.2572     -4332.4892    
    660000   2900.6453     -60311.592      8000          -4250.8401      323.57135     -3927.2688     -4228.4171    
    661000   2866.4512     -66546.847      8000          -4247.9742      319.75695     -3928.2172     -4260.4994    
    662000   2945.5272     -54703.371      8000          -4257.8101      328.57799     -3929.2321     -4202.3774    
    663000   2825.1823     -77931.19       8000          -4245.2702      315.15333     -3930.1169     -4319.2435    
    664000   2879.9411     -54528.977      8000          -4252.3779      321.26177     -3931.1161     -4203.3906    
    665000   2898.2302     -69811.594      8000          -4255.344       323.30194     -3932.0421     -4280.6258    
    666000   2878.7853     -78997.622      8000          -4254.0789      321.13284     -3932.946      -4327.3976    
[...]
    840000   2680.5214     -56827.168      8000          -4288.3791      299.0162      -3989.3629     -4273.1127    
    841000   2595.0572     -78403.327      8000          -4278.5237      289.48254     -3989.0412     -4380.5253    
    842000   2657.013      -70095.302      8000          -4285.1864      296.3938      -3988.7926     -4338.793     
    843000   2673.8136     -78011.095      8000          -4286.794       298.26793     -3988.5261     -4378.0517    
    844000   2680.3879     -64536.648      8000          -4287.2421      299.0013      -3988.2408     -4310.4857    
    845000   2699.4999     -46094.9        8000          -4289.0973      301.13328     -3987.964      -4218.1254    
    846000   2722.6519     -62857.718      8000          -4291.3788      303.71592     -3987.6629     -4301.5245    
    847000   2715.2966     -75800.635      8000          -4290.2646      302.89542     -3987.3691     -4365.8575    
    848000   2624.2517     -75250.327      8000          -4279.752       292.73923     -3987.0127     -4362.7532    
    849000   2628.8555     -60940.706      8000          -4279.8989      293.25278     -3986.6461     -4290.9357    
    850000   2757.0326     -70126.673      8000          -4293.8752      307.55114     -3986.3241     -4336.4811    
    851000   2693.869      -69197.517      8000          -4286.4483      300.50514     -3985.9432     -4331.4608    
    852000   2656.2498     -51722.393      8000          -4281.8645      296.30866     -3985.5558     -4243.8165    
    853000   2544.2507     -88951.252      8000          -4268.9737      283.815       -3985.1587     -4429.3108    
    854000   2669.0038     -76930.625      8000          -4282.5622      297.73139     -3984.8308     -4368.9614    
    855000   2622.1431     -56856.403      8000          -4276.9595      292.504       -3984.4555     -4268.3513    
    856000   2577.4968     -62451.243      8000          -4271.53        287.52364     -3984.0064     -4295.8384    
    857000   2632.5976     -51012.93       8000          -4277.3321      293.67023     -3983.6618     -4238.38      
    858000   2733.6649     -50221.705      8000          -4288.2602      304.94444     -3983.3158     -4234.0832    
    859000   2661.9534     -53470.433      8000          -4279.8455      296.9449      -3982.9006     -4249.8896    
    860000   2790.488      -68187.66       8000          -4293.7794      311.28313     -3982.4962     -4322.9714    
    861000   2650.5376     -96781.389      8000          -4277.7212      295.67145     -3982.0497     -4465.2993    
    862000   2730.6569     -73602.308      8000          -4286.2575      304.60889     -3981.6486     -4349.1602    
    863000   2586.7208     -55712.26       8000          -4269.7393      288.5526      -3981.1867     -4259.3696    
    864000   2679.1686     -65593.036      8000          -4279.6561      298.86529     -3980.7908     -4308.3105    
    865000   2733.132      -82156.779      8000          -4285.2777      304.88499     -3980.3927     -4390.6185    
    866000   2598.0203     -74753.272      8000          -4269.658       289.81308     -3979.8449     -4353.1036    
    867000   2758.209      -58485.821      8000          -4287.1502      307.68237     -3979.4679     -4271.4997    
    868000   2684.9506     -53171.743      8000          -4278.4782      299.51028     -3978.968      -4244.4655    
    869000   2711.1473     -74046.689      8000          -4280.9246      302.43257     -3978.4921     -4348.2226    
    870000   2729.8048     -58877.178      8000          -4282.5242      304.51383     -3978.0104     -4271.9964    
    871000   2788.5394     -57436.025      8000          -4288.614       311.06577     -3977.5482     -4264.3382    
    872000   2671.4565     -78701.303      8000          -4275.0265      298.00499     -3977.0215     -4369.9934    
    873000   2700.9572     -58876.924      8000          -4277.8484      301.29584     -3976.5526     -4270.5373    
    874000   2748.7536     -67516.945      8000          -4282.6762      306.62761     -3976.0486     -4313.1748    
    875000   2695.4828     -60652.105      8000          -4276.1891      300.68517     -3975.5039     -4278.3525    
    876000   2794.0878     -85154.99       8000          -4286.6618      311.6847      -3974.9771     -4400.1737    
    877000   2591.918      -52317.083      8000          -4263.6024      289.13235     -3974.47       -4235.7001    
    878000   2656.8943     -61139.425      8000          -4270.4005      296.38056     -3974.02       -4279.3018    
    879000   2805.8307     -48521.766      8000          -4286.4918      312.99464     -3973.4972     -4215.7764    
    880000   2726.2761     -84109.694      8000          -4277.0715      304.1202      -3972.9513     -4392.9285    
    881000   2727.0177     -52264.11       8000          -4276.6166      304.20293     -3972.4137     -4233.3792    
    882000   2704.7537     -68566.877      8000          -4273.6314      301.71935     -3971.912      -4314.2807    
    883000   2848.7765     -71818.685      8000          -4289.1361      317.78531     -3971.3508     -4329.9564    
    884000   2775.5481     -59040.444      8000          -4280.3926      309.61657     -3970.776      -4265.5772    
    885000   2811.8694     -44706.14       8000          -4283.9537      313.66826     -3970.2854     -4193.5124    
    886000   2652.207      -45487          8000          -4265.5081      295.85768     -3969.6504     -4196.7764    
    887000   2815.57       -42479.142      8000          -4283.2436      314.08107     -3969.1625     -4181.2697    
    888000   2788.3072     -76762.475      8000          -4279.578       311.03986     -3968.5382     -4351.8292    
    889000   2772.2252     -72716.924      8000          -4277.19        309.2459      -3967.9441     -4331.0348    
    890000   2696.4916     -67325.361      8000          -4268.1695      300.7977      -3967.3718     -4303.5413    
    891000   2778.3072     -54747.302      8000          -4276.7547      309.92435     -3966.8303     -4240.195     
    892000   2734.2198     -76363.66       8000          -4271.207       305.00633     -3966.2007     -4347.5003    
    893000   2772.0131     -75978.58       8000          -4274.8336      309.22223     -3965.6113     -4344.9882    
    894000   2756.2237     -43368.603      8000          -4272.5299      307.4609      -3965.069      -4181.6174    
    895000   2736.7666     -49240.241      8000          -4269.6986      305.29043     -3964.4081     -4210.2749    
    896000   2795.0496     -63633.972      8000          -4275.6244      311.79199     -3963.8324     -4281.5701    
    897000   2650.0069     -56353.043      8000          -4258.838       295.61226     -3963.2257     -4244.6082    
    898000   2698.2162     -56633.86       8000          -4263.5339      300.99008     -3962.5438     -4245.3285    
    899000   2669.6355     -45013.442      8000          -4259.6963      297.80185     -3961.8944     -4186.6559    
    900000   2813.8637     -67714.204      8000          -4275.1279      313.89073     -3961.2371     -4299.3482    
    901000   2607.6657     -73380.813      8000          -4251.4944      290.88904     -3960.6053     -4327.011     
    902000   2785.481      -71774.337      8000          -4270.7172      310.7246      -3959.9926     -4318.3768    
    903000   2771.8006     -65506.573      8000          -4268.5125      309.19853     -3959.314      -4286.4019    
    904000   2833.5946     -54909.237      8000          -4274.7551      316.09174     -3958.6634     -4232.8366    
    905000   2777.2413     -66324.74       8000          -4267.7849      309.80545     -3957.9795     -4289.1527    
    906000   2738.9707     -43338.038      8000          -4262.8505      305.5363      -3957.3142     -4173.71      
    907000   2733.2698     -82462.817      8000          -4261.5857      304.90036     -3956.6853     -4368.4393    
    908000   2779.2161     -63468.235      8000          -4266.0323      310.02574     -3956.0065     -4272.9166    
    909000   2800.0467     -73799.868      8000          -4267.6768      312.34943     -3955.3274     -4323.8254    
    910000   2853.3677     -65057.795      8000          -4272.9351      318.29746     -3954.6376     -4279.4847    
    911000   2882.5481     -54606.318      8000          -4275.5181      321.55257     -3953.9655     -4226.6262    
    912000   2759.186      -34385.581      8000          -4261.0853      307.79136     -3953.2939     -4124.9882    
    913000   2873.0829     -80302.503      8000          -4273.0966      320.49673     -3952.5999     -4353.567     
    914000   2764.6989     -64383.175      8000          -4260.2783      308.40632     -3951.872      -4273.3506    
    915000   2790.6073     -74018.781      8000          -4262.4789      311.29645     -3951.1825     -4320.7736    
    916000   2824.5511     -64706.837      8000          -4265.5744      315.08292     -3950.4914     -4273.5861    
    917000   2761.1792     -76262.159      8000          -4257.7961      308.0137      -3949.7824     -4330.5752    
    918000   2732.9924     -78026.859      8000          -4253.9274      304.86942     -3949.058      -4338.6623    
    919000   2786.2422     -58246.554      8000          -4259.1369      310.80951     -3948.3274     -4239.1645    
    920000   2798.9509     -78797.155      8000          -4259.8748      312.22719     -3947.6476     -4341.0982    
    921000   2769.7788     -50240.382      8000          -4255.8872      308.973       -3946.9142     -4197.7748    
    922000   2871.811      -42536.753      8000          -4266.5671      320.35484     -3946.2123     -4158.6071    
    923000   2945.065      -50186.66       8000          -4273.978       328.52644     -3945.4516     -4196.044     
    924000   2870.2041     -66823.937      8000          -4264.9116      320.17559     -3944.736      -4278.4018    
    925000   2895.7694     -67508.02       8000          -4267.0292      323.02744     -3944.0017     -4281.0833    
    926000   2855.2274     -77125.138      8000          -4261.7925      318.50491     -3943.2876     -4328.3894    
    927000   2835.5224     -86501.453      8000          -4258.8472      316.30679     -3942.5404     -4374.4601    
    928000   2712.9525     -53973.855      8000          -4244.363       302.63394     -3941.7291     -4211.2318    
    929000   2817.7678     -68341.372      8000          -4255.3523      314.32623     -3941.0261     -4282.2687    
    930000   2804.0339     -69639.513      8000          -4253.0357      312.7942      -3940.2415     -4287.966     
    931000   2848.0199     -37993.199      8000          -4257.2367      317.70091     -3939.5358     -4129.2438    
    932000   2887.0504     -67741.061      8000          -4260.8499      322.05482     -3938.7951     -4277.0403    
    933000   2765.1636     -85974.497      8000          -4246.4758      308.45816     -3938.0176     -4367.3061    
    934000   2737.6356     -57438.16       8000          -4242.6591      305.38738     -3937.2718     -4224.0724    
    935000   2846.331      -57847.664      8000          -4254.0464      317.51251     -3936.5339     -4225.3793    
    936000   2817.9098     -70793.275      8000          -4250.1239      314.34208     -3935.7818     -4289.2673    
    937000   2787.034      -61552.62       8000          -4245.908       310.89784     -3935.0102     -4242.3552    
    938000   2892.6206     -53430.199      8000          -4256.9908      322.67618     -3934.3146     -4201.1027    
    939000   2894.1116     -59644.809      8000          -4256.3401      322.8425      -3933.4976     -4231.3165    
    940000   2902.5557     -74965.719      8000          -4256.5047      323.78445     -3932.7203     -4307.0397    
    941000   2894.8791     -65171.08       8000          -4254.8638      322.92813     -3931.9357     -4257.3484    
    942000   2790.8661     -60803.175      8000          -4242.4534      311.32531     -3931.1281     -4234.731     
    943000   2743.1225     -83529.066      8000          -4236.3839      305.99944     -3930.3845     -4347.4624    
    944000   2928.1789     -53984.395      8000          -4256.3404      326.64276     -3929.6977     -4199.253     
    945000   2862.4802     -56974.389      8000          -4248.2386      319.31398     -3928.9247     -4213.4096    
    946000   2927.8274     -54346.845      8000          -4254.7762      326.60355     -3928.1727     -4199.5378    
    947000   2769.6323     -91930.871      8000          -4236.2925      308.95666     -3927.3359     -4386.3658    
    948000   2984.2404     -69198.835      8000          -4259.5215      332.89651     -3926.625      -4272.1491    
    949000   2858.0201     -82152.766      8000          -4244.5926      318.81645     -3925.7762     -4335.982     
    950000   2866.5869     -57771.981      8000          -4244.8298      319.77209     -3925.0577     -4213.5252    
    951000   2750.0216     -56060.59       8000          -4230.9975      306.76905     -3924.2285     -4204.1507    
    952000   2787.4571     -80220.342      8000          -4234.4031      310.94503     -3923.458      -4324.0149    
    953000   2866.8156     -60356.817      8000          -4242.479       319.79759     -3922.6814     -4224.0555    
    954000   2887.7252     -57468.435      8000          -4244.0755      322.13009     -3921.9454     -4208.8973    
    955000   2916.7145     -76597.776      8000          -4246.5097      325.36389     -3921.1458     -4303.6144    
    956000   2891.3504     -67052.948      8000          -4242.9309      322.53449     -3920.3964     -4255.2057    
    957000   2908.2356     -55139.96       8000          -4244.0015      324.41806     -3919.5834     -4194.9087    
    958000   2929.722      -54874.628      8000          -4245.5967      326.8149      -3918.7818     -4192.7823    
    959000   2836.5354     -64874.553      8000          -4234.3547      316.4198      -3917.9349     -4241.867     
    960000   2817.2351     -76278.638      8000          -4231.4263      314.26681     -3917.1595     -4298.0346    
    961000   2903.6251     -65291.802      8000          -4240.3143      323.90376     -3916.4106     -4242.4261    
    962000   2879.6361     -79737.352      8000          -4236.7995      321.22774     -3915.5717     -4313.7169    
    963000   3080.3177     -74567.449      8000          -4258.5059      343.61408     -3914.8919     -4287.2226    
    964000   3023.7936     -82605.274      8000          -4251.3423      337.30873     -3914.0335     -4326.4988    
    965000   3073.3353     -55240.302      8000          -4256.0905      342.83518     -3913.2553     -4189.0816    
    966000   3035.6877     -58445.496      8000          -4251.1039      338.63553     -3912.4684     -4204.2989    
    967000   2814.3174     -54178.815      8000          -4225.5551      313.94134     -3911.6138     -4182.1398    
    968000   3121.9154     -79356.005      8000          -4259.1995      348.25436     -3910.9451     -4307.1862    
    969000   2992.4942     -69361.663      8000          -4243.9186      333.81723     -3910.1013     -4256.4385    
    970000   2996.8572     -63253.807      8000          -4243.6524      334.30393     -3909.3484     -4225.1878    
    971000   2899.7553     -74559.677      8000          -4232.0029      323.47207     -3908.5308     -4280.8227    
    972000   2953.8136     -83057.764      8000          -4237.2207      329.50235     -3907.7183     -4322.443     
    973000   3025.7914     -82426.107      8000          -4244.5188      337.53158     -3906.9872     -4318.5579    
    974000   2825.1777     -61769.01       8000          -4221.2171      315.15283     -3906.0643     -4214.4898    
    975000   2953.0642     -59946.227      8000          -4234.7525      329.41876     -3905.3337     -4204.6577    
    976000   2918.4349     -76571.068      8000          -4230.0809      325.5558      -3904.5251     -4286.8604    
    977000   3048.2363     -68138.261      8000          -4243.765       340.03535     -3903.7297     -4243.9582    
    978000   2897.4846     -59962.78       8000          -4226.1197      323.21877     -3902.9009     -4202.3075    
    979000   2956.722      -78133.093      8000          -4231.943       329.82679     -3902.1162     -4292.251     
    980000   2945.5311     -36474.626      8000          -4229.9011      328.57843     -3901.3227     -4083.4481    
    981000   3012.4113     -78317.238      8000          -4236.5765      336.03901     -3900.5375     -4291.5917    
    982000   3039.6157     -67852.204      8000          -4238.821       339.0737      -3899.7473     -4238.5474    
    983000   2982.3805     -67902.936      8000          -4231.6342      332.68904     -3898.9452     -4237.9986    
    984000   3047.2385     -68341.019      8000          -4238.0685      339.92404     -3898.1445     -4239.3854    
    985000   3066.5731     -71607.584      8000          -4239.5343      342.08084     -3897.4535     -4255.005     
    986000   3006.6315     -50576.726      8000          -4231.9867      335.39427     -3896.5925     -4149.1326    
    987000   3105.1559     -71013.735      8000          -4242.193       346.38481     -3895.8082     -4250.3945    
    988000   3030.6716     -61872.27       8000          -4233.1143      338.07597     -3895.0384     -4203.9795    
    989000   3039.8822     -69502.123      8000          -4233.3552      339.10344     -3894.2517     -4241.2903    
    990000   2903.957      -62677.228      8000          -4217.3641      323.94078     -3893.4234     -4206.3838    
    991000   2879.3541     -81557.063      8000          -4213.8638      321.19628     -3892.6675     -4299.8989    
    992000   2970.1328     -76114.572      8000          -4223.2391      331.32279     -3891.9164     -4271.9722    
    993000   3040.2413     -81589.688      8000          -4230.2504      339.14349     -3891.1069     -4298.5011    
    994000   3025.1616     -65686.451      8000          -4227.7882      337.46133     -3890.3269     -4218.313     
    995000   3082.0757     -69764.725      8000          -4233.4148      343.81018     -3889.6046     -4237.9544    
    996000   3004.247      -95049.34       8000          -4223.8721      335.12828     -3888.7438     -4363.3449    
    997000   3008.5564     -87217.041      8000          -4223.599       335.60899     -3887.99       -4323.4828    
    998000   3079.2036     -54381.738      8000          -4230.7574      343.48979     -3887.2676     -4158.8069    
    999000   2874.5366     -96289.322      8000          -4207.1278      320.65889     -3886.4689     -4367.2615    
   1000000   2972.6447     -81583.953      8000          -4217.2602      331.60299     -3885.6572     -4293.0228    
Loop time of 2249.28 on 8 procs for 1000000 steps with 864 atoms

Performance: 38.412 ns/day, 0.625 hours/ns, 444.586 timesteps/s
50.4% CPU use with 8 MPI tasks x 1 OpenMP threads

MPI task timing breakdown:
Section |  min time  |  avg time  |  max time  |%varavg| %total
---------------------------------------------------------------
Pair    | 1016.8     | 1198.8     | 1594.7     | 526.7 | 53.30
Neigh   | 7.4837     | 10.845     | 16.281     |  89.1 |  0.48
Comm    | 520.18     | 909.98     | 1088.7     | 602.2 | 40.46
Output  | 1.372      | 1.3774     | 1.3943     |   0.6 |  0.06
Modify  | 83.829     | 101.09     | 116.92     | 140.8 |  4.49
Other   |            | 27.15      |            |       |  1.21

Nlocal:            108 ave         247 max          29 min
Histogram: 2 1 1 1 1 0 1 0 0 1
Nghost:        1977.12 ave        2756 max        1248 min
Histogram: 1 1 0 1 1 1 1 1 0 1
Neighs:        19573.6 ave       63651 max        2508 min
Histogram: 3 1 1 1 1 0 0 0 0 1

Total # of neighbors = 156589
Ave neighs/atom = 181.23727
Neighbor list builds = 30048
Dangerous builds = 3
Total wall time: 0:37:29
