LAMMPS (2 Jun 2022)
OMP_NUM_THREADS environment is not set. Defaulting to 1 thread. (src/comm.cpp:98)
  using 1 OpenMP thread(s) per MPI task
#melt Cu-Ni using eam/alloy potential

units metal

lattice  fcc 3.61
Lattice spacing in x,y,z = 3.61 3.61 3.61
region   box block 0 5 0 5 0 5

create_box  2 box
Created orthogonal box = (0 0 0) to (18.05 18.05 18.05)
  2 by 2 by 2 MPI processor grid
create_atoms  1 box
Created 500 atoms
  using lattice units in orthogonal box = (0 0 0) to (18.05 18.05 18.05)
  create_atoms CPU = 0.000 seconds
group 1 type 1 2
500 atoms in group 1

set group 1 type/fraction 2 0.1 100000
Setting atom values ...
  64 settings made for type/fraction
mass  1 63.54
mass  2 58.69
velocity all create 2000  2000

pair_style  eam/alloy
pair_coeff  * * CuNi.eam.alloy Cu Ni
Reading eam/alloy potential file CuNi.eam.alloy with DATE: 2014-07-11
neighbor    2.0 bin
neigh_modify every 20 delay 0 check no

fix 1 all nvt temp 1000 3000 100

thermo  1000
thermo_style  custom   step temp press vol pe ke etotal enthalpy
thermo_modify flush yes

compute  myMSD all msd
fix      2 all ave/time 1 10 10 c_myMSD[4] file msd.txt

dump 1 all custom 1000  dump.lammpstrj  id type x y z

run 1000000
Neighbor list info ...
  update every 20 steps, delay 0 steps, check no
  max neighbors/atom: 2000, page size: 100000
  master list distance cutoff = 8.3943324
  ghost atom cutoff = 8.3943324
  binsize = 4.1971662, bins = 5 5 5
  1 neighbor lists, perpetual/occasional/extra = 1 0 0
  (1) pair eam/alloy, perpetual
      attributes: half, newton on
      pair build: half/bin/atomonly/newton
      stencil: half/bin/3d
      bin: standard
Per MPI rank memory allocation (min/avg/max) = 4.498 | 4.498 | 4.498 Mbytes
   Step          Temp          Press          Volume         PotEng         KinEng         TotEng        Enthalpy   
         0   2000.1613      24281.542      5880.7351     -1821.4165      129.01203     -1692.4044     -1603.2799    
      1000   975.17292      70492.762      5880.7351     -1755.2856      62.899445     -1692.3861     -1433.6448    
      2000   1009.9412      68411.249      5880.7351     -1757.5261      65.142026     -1692.384      -1441.2828    
      3000   996.70867      69157.923      5880.7351     -1756.674       64.288519     -1692.3855     -1438.5436    
      4000   1026.5383      67882.915      5880.7351     -1758.5965      66.212551     -1692.3839     -1443.222     
      5000   1014.4242      68035.683      5880.7351     -1757.8154      65.431182     -1692.3842     -1442.6615    
      6000   1001.864       68750.556      5880.7351     -1757.0063      64.621043     -1692.3852     -1440.0386    
      7000   977.29321      69491.893      5880.7351     -1755.42        63.036206     -1692.3838     -1437.3161    
      8000   1007.6497      68815.5        5880.7351     -1757.3779      64.994224     -1692.3836     -1439.7986    
      9000   991.81613      69194.321      5880.7351     -1756.3558      63.972946     -1692.3828     -1438.4074    
     10000   997.72133      69005.811      5880.7351     -1756.7366      64.353836     -1692.3828     -1439.0993    
     11000   1045.2938      66513.285      5880.7351     -1759.804       67.422298     -1692.3817     -1448.2469    
     12000   1025.7106      67597.595      5880.7351     -1758.5433      66.159165     -1692.3841     -1444.2694    
     13000   961.11317      69982.777      5880.7351     -1754.3704      61.99258      -1692.3778     -1435.5084    
     14000   999.12006      68425.66       5880.7351     -1756.8162      64.444056     -1692.3722     -1441.2181    
     15000   1031.4794      67075.913      5880.7351     -1758.9032      66.531262     -1692.3719     -1446.172     
     16000   942.54981      70801.369      5880.7351     -1753.1642      60.795228     -1692.369      -1432.495     
     17000   1033.4397      67256.183      5880.7351     -1759.027       66.657703     -1692.3693     -1445.5078    
     18000   968.90542      70241.168      5880.7351     -1754.8621      62.495187     -1692.3669     -1434.5491    
     19000   1009.486       69034.343      5880.7351     -1757.4728      65.112666     -1692.3601     -1438.9719    
     20000   1019.8401      68095.024      5880.7351     -1758.1378      65.780514     -1692.3573     -1442.4168    
     21000   1013.9534      68392.667      5880.7351     -1757.7525      65.40082      -1692.3516     -1441.3187    
     22000   1017.6132      68275.681      5880.7351     -1757.9832      65.636877     -1692.3463     -1441.7427    
     23000   964.89009      70110.572      5880.7351     -1754.5775      62.236195     -1692.3413     -1435.0028    
     24000   976.58842      69441.543      5880.7351     -1755.3239      62.990746     -1692.3332     -1437.4503    
     25000   1030.2939      67339.862      5880.7351     -1758.7827      66.454796     -1692.3279     -1445.1592    
     26000   1022.7108      67460.108      5880.7351     -1758.2819      65.965678     -1692.3163     -1444.7062    
     27000   1002.3071      68366.073      5880.7351     -1756.957       64.649624     -1692.3074     -1441.372     
     28000   1035.1902      67258.626      5880.7351     -1759.0723      66.77061      -1692.3017     -1445.4311    
     29000   1013.5372      68213.688      5880.7351     -1757.6655      65.373971     -1692.2915     -1441.9155    
     30000   983.18163      69878.343      5880.7351     -1755.6935      63.416014     -1692.2775     -1435.7914    
     31000   997.4551       68807.732      5880.7351     -1756.6041      64.336664     -1692.2675     -1439.711     
     32000   1012.6756      68020.503      5880.7351     -1757.5724      65.3184       -1692.254      -1442.5871    
     33000   979.8714       69616.005      5880.7351     -1755.4436      63.202501     -1692.2411     -1436.7179    
     34000   1009.61        68656.645      5880.7351     -1757.3459      65.120662     -1692.2252     -1440.2233    
     35000   969.51841      70005.522      5880.7351     -1754.7433      62.534725     -1692.2085     -1435.2556    
     36000   1014.2835      67884.95       5880.7351     -1757.6134      65.422108     -1692.1913     -1443.0219    
     37000   941.09302      71764.539      5880.7351     -1752.8735      60.701264     -1692.1722     -1428.7629    
     38000   962.82822      70383.665      5880.7351     -1754.2612      62.103203     -1692.158      -1433.8171    
     39000   982.75202      69434.116      5880.7351     -1755.5276      63.388304     -1692.1393     -1437.2837    
     40000   973.99591      70608.845      5880.7351     -1754.9469      62.823528     -1692.1234     -1432.956     
     41000   974.96163      69869.876      5880.7351     -1754.9877      62.885817     -1692.1018     -1435.6468    
     42000   953.35218      70537.752      5880.7351     -1753.5728      61.49199      -1692.0808     -1433.1743    
     43000   999.44209      68526.918      5880.7351     -1756.5226      64.464826     -1692.0577     -1440.532     
     44000   1010.079       68891.479      5880.7351     -1757.1887      65.150917     -1692.0377     -1439.1739    
     45000   990.79513      68786.21       5880.7351     -1755.9206      63.907091     -1692.0135     -1439.536     
     46000   1008.0773      68539.26       5880.7351     -1757.0086      65.021803     -1691.9868     -1440.4158    
     47000   976.15511      70241.666      5880.7351     -1754.9221      62.962798     -1691.9593     -1434.1396    
     48000   1024.4717      68492.103      5880.7351     -1758.0123      66.07926      -1691.933      -1440.5351    
     49000   1012.2736      68430.39       5880.7351     -1757.1972      65.292467     -1691.9048     -1440.7333    
     50000   998.38142      68961.832      5880.7351     -1756.272       64.396413     -1691.8755     -1438.7535    
     51000   1037.467       67476.731      5880.7351     -1758.7623      66.917461     -1691.8448     -1444.1737    
     52000   967.15243      70350.193      5880.7351     -1754.1928      62.382117     -1691.8107     -1433.5927    
     53000   1021.4443      67869.739      5880.7351     -1757.665       65.88399      -1691.781      -1442.6674    
     54000   1035.3173      67523.059      5880.7351     -1758.5224      66.778804     -1691.7436     -1443.9024    
     55000   1021.4792      67773.157      5880.7351     -1757.5934      65.886237     -1691.7071     -1442.948     
     56000   988.8243       69838.061      5880.7351     -1755.449       63.779971     -1691.6691     -1435.3308    
     57000   1012.6979      69203.509      5880.7351     -1756.9535      65.319839     -1691.6337     -1437.6245    
     58000   1021.4837      67669.741      5880.7351     -1757.4817      65.886529     -1691.5952     -1443.2157    
     59000   1029.3585      68283.291      5880.7351     -1757.9495      66.394461     -1691.555      -1440.9235    
     60000   1031.7026      68574.711      5880.7351     -1758.0533      66.545655     -1691.5076     -1439.8065    
     61000   991.95766      70191.094      5880.7351     -1755.4452      63.982075     -1691.4631     -1433.8291    
     62000   1009.8146      68991.529      5880.7351     -1756.5555      65.133862     -1691.4217     -1438.1906    
     63000   1010.6371      69163.966      5880.7351     -1756.56        65.186915     -1691.3731     -1437.5091    
     64000   1027.8929      68085.888      5880.7351     -1757.6257      66.299927     -1691.3258     -1441.4188    
     65000   1029.5542      68511.778      5880.7351     -1757.6821      66.407079     -1691.275      -1439.8049    
     66000   1006.8351      70096.69       5880.7351     -1756.1644      64.941685     -1691.2227     -1433.9351    
     67000   1003.1518      69460.71       5880.7351     -1755.873       64.704108     -1691.1689     -1436.2157    
     68000   1016.1674      69015.175      5880.7351     -1756.6548      65.54362      -1691.1112     -1437.7933    
     69000   1027.9674      68400.457      5880.7351     -1757.3609      66.304735     -1691.0562     -1439.9946    
     70000   1026.9381      68455.162      5880.7351     -1757.233       66.23834      -1690.9947     -1439.7323    
     71000   1040.369       68334.247      5880.7351     -1758.04        67.104645     -1690.9353     -1440.1168    
     72000   1041.3742      68054.882      5880.7351     -1758.0437      67.169481     -1690.8742     -1441.081     
     73000   1020.2295      68861.699      5880.7351     -1756.6147      65.805632     -1690.8091     -1438.0545    
     74000   1019.8818      69808.551      5880.7351     -1756.5266      65.783203     -1690.7434     -1434.5135    
     75000   1020.7282      68957.687      5880.7351     -1756.5125      65.8378       -1690.6747     -1437.5678    
     76000   1015.0396      70364.927      5880.7351     -1756.0775      65.47088      -1690.6066     -1432.3345    
     77000   1015.4363      70191.505      5880.7351     -1756.0314      65.496466     -1690.535      -1432.8994    
     78000   1021.1113      69651.875      5880.7351     -1756.3222      65.862507     -1690.4597     -1434.8048    
     79000   991.60498      71100.487      5880.7351     -1754.3421      63.959327     -1690.3828     -1429.4108    
     80000   1025.0294      69469.946      5880.7351     -1756.4238      66.115227     -1690.3086     -1435.3215    
     81000   986.87764      71283.078      5880.7351     -1753.8855      63.65441      -1690.2311     -1428.589     
     82000   1048.0476      68667.11       5880.7351     -1757.7532      67.599918     -1690.1533     -1438.113     
     83000   1023.5734      69514.743      5880.7351     -1756.0924      66.021314     -1690.0711     -1434.9196    
     84000   1004.9793      70852.491      5880.7351     -1754.8113      64.821978     -1689.9893     -1429.9276    
     85000   1044.1333      69231.148      5880.7351     -1757.2536      67.347447     -1689.9061     -1435.7955    
     86000   1030.133       70139.441      5880.7351     -1756.2631      66.444417     -1689.8187     -1432.3742    
     87000   1020.7579      70690.321      5880.7351     -1755.5692      65.839713     -1689.7295     -1430.263     
     88000   1025.1744      69980.739      5880.7351     -1755.7644      66.124583     -1689.6398     -1432.7778    
     89000   1035.8105      69808.666      5880.7351     -1756.3626      66.810622     -1689.5519     -1433.3216    
     90000   992.18973      71372.624      5880.7351     -1753.4543      63.997044     -1689.4573     -1427.4864    
     91000   1080.8008      67063.168      5880.7351     -1759.0781      69.71253      -1689.3656     -1443.2124    
     92000   997.64035      71725.875      5880.7351     -1753.6183      64.348613     -1689.2697     -1426.0023    
     93000   1021.1401      70437.645      5880.7351     -1755.0383      65.864364     -1689.174      -1430.6349    
     94000   1030.9683      70300.522      5880.7351     -1755.5777      66.498291     -1689.0794     -1431.0437    
     95000   1017.443       70527.316      5880.7351     -1754.6037      65.625898     -1688.9778     -1430.1097    
     96000   1082.0223      67680.321      5880.7351     -1758.666       69.791317     -1688.8747     -1440.4564    
     97000   1019.7167      70926.062      5880.7351     -1754.5436      65.772555     -1688.771      -1428.4393    
     98000   978.86099      72553.309      5880.7351     -1751.803       63.137329     -1688.6657     -1422.3612    
     99000   1052.515       69871.555      5880.7351     -1756.4525      67.888075     -1688.5644     -1432.1032    
    100000   1001.9468      71686.169      5880.7351     -1753.0817      64.626382     -1688.4554     -1425.3337    
    101000   1057.2399      69677.624      5880.7351     -1756.5436      68.192834     -1688.3508     -1432.6014    
    102000   1065.6259      68978.519      5880.7351     -1756.9831      68.733736     -1688.2494     -1435.066     
    103000   1060.8416      69714.256      5880.7351     -1756.5709      68.425147     -1688.1457     -1432.2619    
    104000   1015.5629      71339.541      5880.7351     -1753.5449      65.504632     -1688.0402     -1426.1908    
    105000   1040.9887      70538.897      5880.7351     -1755.0789      67.144614     -1687.9343     -1429.0236    
    106000   969.87727      73998.621      5880.7351     -1750.3846      62.557872     -1687.8268     -1416.2173    
    107000   983.35499      73003.098      5880.7351     -1751.1494      63.427196     -1687.7222     -1419.7668    
    108000   1007.9987      72327.391      5880.7351     -1752.6345      65.016737     -1687.6178     -1422.1425    
    109000   1043.3192      70929.326      5880.7351     -1754.8072      67.294933     -1687.5122     -1427.1685    
    110000   1032.2486      71308.495      5880.7351     -1753.9906      66.58087      -1687.4097     -1425.6743    
    111000   1066.4858      69621.598      5880.7351     -1756.0909      68.789199     -1687.3017     -1431.758     
    112000   1042.8649      70947.518      5880.7351     -1754.4637      67.265633     -1687.1981     -1426.7876    
    113000   1053.4657      70844.724      5880.7351     -1755.0461      67.949392     -1687.0967     -1427.0635    
    114000   1051.1986      71481.166      5880.7351     -1754.7941      67.803164     -1686.9909     -1424.6217    
    115000   1077.1074      69381.845      5880.7351     -1756.361       69.474301     -1686.8867     -1432.223     
    116000   1075.1618      70064.885      5880.7351     -1756.13        69.34881      -1686.7812     -1429.6104    
    117000   1031.6326      72314.766      5880.7351     -1753.2182      66.541138     -1686.677      -1421.2481    
    118000   1029.3755      72398.625      5880.7351     -1752.972       66.395554     -1686.5764     -1420.8397    
    119000   1081.1673      69940.926      5880.7351     -1756.2109      69.736172     -1686.4747     -1429.7589    
    120000   1038.5237      71959.527      5880.7351     -1753.3601      66.985622     -1686.3745     -1422.2494    
    121000   999.4131       74249.487      5880.7351     -1750.7397      64.462957     -1686.2768     -1413.7465    
    122000   1093.07        69658.282      5880.7351     -1756.6879      70.503901     -1686.184      -1430.5056    
    123000   1066.8068      71680.038      5880.7351     -1754.8944      68.809908     -1686.0845     -1422.9853    
    124000   1089.0561      69600.641      5880.7351     -1756.232       70.245003     -1685.987      -1430.5202    
    125000   1030.9938      72981.503      5880.7351     -1752.3895      66.499939     -1685.8896     -1418.0134    
    126000   1038.7558      72794.034      5880.7351     -1752.7973      67.000592     -1685.7967     -1418.6086    
    127000   1072.4238      71538.337      5880.7351     -1754.8772      69.172209     -1685.705      -1423.1259    
    128000   1069.1348      71726.966      5880.7351     -1754.5716      68.960065     -1685.6116     -1422.3401    
    129000   1092.2177      70012.958      5880.7351     -1755.9722      70.448929     -1685.5233     -1428.543     
    130000   1085.3294      70885.831      5880.7351     -1755.4399      70.00463      -1685.4353     -1425.2512    
    131000   1013.1675      73936.901      5880.7351     -1750.6974      65.350126     -1685.3473     -1413.9643    
    132000   1061.4933      71803.636      5880.7351     -1753.7264      68.467182     -1685.2592     -1421.7063    
    133000   1056.5789      72323.343      5880.7351     -1753.3187      68.1502       -1685.1685     -1419.7081    
    134000   1056.8697      71965.071      5880.7351     -1753.2471      68.168953     -1685.0782     -1420.9328    
    135000   1085.6498      70984.845      5880.7351     -1755.0164      70.025296     -1684.9911     -1424.4436    
    136000   1068.3169      71833.867      5880.7351     -1753.8128      68.907309     -1684.9054     -1421.2416    
    137000   1063.3185      72388.229      5880.7351     -1753.4038      68.584909     -1684.8189     -1419.1204    
    138000   1049.5367      73387.821      5880.7351     -1752.429       67.695971     -1684.733      -1415.3654    
    139000   1034.6388      74056.817      5880.7351     -1751.3843      66.735045     -1684.6492     -1412.8262    
    140000   1023.403       74355.081      5880.7351     -1750.5781      66.010324     -1684.5678     -1411.65      
    141000   1014.0511      74928.345      5880.7351     -1749.8946      65.407117     -1684.4874     -1409.4655    
    142000   1056.7182      73774.203      5880.7351     -1752.5679      68.159185     -1684.4087     -1413.623     
    143000   1057.0566      73105.625      5880.7351     -1752.5078      68.181012     -1684.3268     -1415.995     
    144000   1054.7421      73165.051      5880.7351     -1752.2817      68.031721     -1684.25       -1415.7001    
    145000   1014.9679      74907.861      5880.7351     -1749.6342      65.466253     -1684.168      -1409.2212    
    146000   1024.0208      74688.063      5880.7351     -1750.1341      66.050171     -1684.084      -1409.9439    
    147000   1072.4613      72529.447      5880.7351     -1753.1796      69.174624     -1684.005      -1417.7881    
    148000   1087.8016      71961.995      5880.7351     -1754.087       70.164087     -1683.9229     -1419.7889    
    149000   1058.2532      73571.38       5880.7351     -1752.1021      68.258194     -1683.8439     -1413.8027    
    150000   1069.4502      73185.385      5880.7351     -1752.7443      68.980405     -1683.7639     -1415.1393    
    151000   1089.6197      72129.959      5880.7351     -1753.9661      70.281357     -1683.6848     -1418.9342    
    152000   1108.0539      71711.783      5880.7351     -1755.0778      71.470379     -1683.6074     -1420.3917    
    153000   1086.5731      72661.432      5880.7351     -1753.6073      70.084846     -1683.5225     -1416.8211    
    154000   1054.5634      73854.23       5880.7351     -1751.4601      68.020196     -1683.4399     -1412.3604    
    155000   1139.2329      70299.431      5880.7351     -1756.8416      73.48145      -1683.3601     -1425.3284    
    156000   1096.8028      72118.806      5880.7351     -1754.0223      70.74467      -1683.2777     -1418.568     
    157000   1120.0832      71108.669      5880.7351     -1755.4419      72.246274     -1683.1956     -1422.1937    
    158000   1077.996       73221.692      5880.7351     -1752.6441      69.531618     -1683.1125     -1414.3547    
    159000   1073.7949      73666.329      5880.7351     -1752.2904      69.260644     -1683.0297     -1412.6399    
    160000   1109.6211      71943.815      5880.7351     -1754.5176      71.571466     -1682.9461     -1418.8788    
    161000   1051.4044      74348.982      5880.7351     -1750.6793      67.81644      -1682.8629     -1409.9674    
    162000   1117.3544      71321.74       5880.7351     -1754.8482      72.070267     -1682.7779     -1420.9938    
    163000   1060.4767      74946.168      5880.7351     -1751.0943      68.401607     -1682.6927     -1407.6053    
    164000   1074.6229      73612.05       5880.7351     -1751.9223      69.314048     -1682.6082     -1412.4177    
    165000   1043.7698      74525.804      5880.7351     -1749.8437      67.323999     -1682.5197     -1408.9752    
    166000   1070.5718      74244.725      5880.7351     -1751.4858      69.052751     -1682.4331     -1409.9203    
    167000   1084.8828      73275.292      5880.7351     -1752.319       69.975824     -1682.3432     -1413.3887    
    168000   1072.974       74172.272      5880.7351     -1751.4608      69.207693     -1682.2532     -1410.0063    
    169000   1077.5451      74090.248      5880.7351     -1751.6662      69.502532     -1682.1637     -1410.2179    
    170000   1096.568       73082.838      5880.7351     -1752.8021      70.729527     -1682.0726     -1413.8245    
    171000   1039.1684      75974.404      5880.7351     -1749.0056      67.027206     -1681.9784     -1403.1169    
    172000   1028.5678      76467.662      5880.7351     -1748.2298      66.34346      -1681.8864     -1401.2144    
    173000   1063.3614      74697.872      5880.7351     -1750.3803      68.587674     -1681.7926     -1407.6166    
    174000   1114.7989      73158.465      5880.7351     -1753.6048      71.905432     -1681.6994     -1413.1737    
    175000   1095.8981      73674.145      5880.7351     -1752.2897      70.686319     -1681.6033     -1411.1849    
    176000   1107.1634      73308.04       5880.7351     -1752.9221      71.412942     -1681.5091     -1412.4344    
    177000   1082.4421      74682.316      5880.7351     -1751.2278      69.818396     -1681.4094     -1407.2904    
    178000   1102.262       74214.274      5880.7351     -1752.4099      71.096796     -1681.3131     -1408.9121    
    179000   1131.3463      72403.904      5880.7351     -1754.1859      72.972754     -1681.2131     -1415.457     
    180000   1075.2875      74940.768      5880.7351     -1750.4692      69.356915     -1681.1123     -1406.0447    
    181000   1031.3503      77193.15       5880.7351     -1747.5356      66.522935     -1681.0127     -1397.6778    
    182000   1097.5272      73841.709      5880.7351     -1751.7034      70.791399     -1680.912      -1409.8785    
    183000   1084.0181      75081.838      5880.7351     -1750.7286      69.920047     -1680.8086     -1405.2232    
    184000   1087.0638      74841.748      5880.7351     -1750.8213      70.116495     -1680.7048     -1406.0007    
    185000   1118.2733      73623.96       5880.7351     -1752.7317      72.129538     -1680.6022     -1410.3679    
    186000   1129.6067      72724.831      5880.7351     -1753.3577      72.860549     -1680.4972     -1413.5631    
    187000   1052.488       76658.172      5880.7351     -1748.2712      67.886332     -1680.3849     -1399.0136    
    188000   1098.4609      74681.487      5880.7351     -1751.1307      70.851622     -1680.2791     -1406.1632    
    189000   1039.8923      76790.709      5880.7351     -1747.2384      67.073895     -1680.1645     -1398.3068    
    190000   1056.7435      76850.758      5880.7351     -1748.2133      68.160812     -1680.0525     -1397.9743    
    191000   1132.3751      73873.148      5880.7351     -1752.9823      73.039115     -1679.9432     -1408.7943    
    192000   1085.7101      75229.084      5880.7351     -1749.8557      70.02918      -1679.8265     -1403.7007    
    193000   1085.5319      76004.31       5880.7351     -1749.7313      70.017692     -1679.7136     -1400.7424    
    194000   1084.14        76095.569      5880.7351     -1749.5275      69.927908     -1679.5996     -1400.2934    
    195000   1121.9022      74177.68       5880.7351     -1751.8515      72.363601     -1679.4879     -1407.2212    
    196000   1091.7139      75596.876      5880.7351     -1749.7867      70.416434     -1679.3703     -1401.8945    
    197000   1081.8356      76032.354      5880.7351     -1749.0319      69.779275     -1679.2526     -1400.1784    
    198000   1088.3878      76181.772      5880.7351     -1749.3346      70.201897     -1679.1327     -1399.5101    
    199000   1134.9695      74019.149      5880.7351     -1752.2171      73.206452     -1679.0106     -1407.3258    
    200000   1091.809       76033.69       5880.7351     -1749.3073      70.422568     -1678.8847     -1399.8056    
    201000   1102.0212      75386.61       5880.7351     -1749.8422      71.081264     -1678.7609     -1402.0569    
    202000   1094.526       76052.25       5880.7351     -1749.2365      70.597817     -1678.6387     -1399.4914    
    203000   1091.1697      76461.783      5880.7351     -1748.8958      70.381334     -1678.5144     -1397.864     
    204000   1109.6776      76301.798      5880.7351     -1749.9643      71.575108     -1678.3892     -1398.326     
    205000   1124.4322      75506.704      5880.7351     -1750.7957      72.526793     -1678.2689     -1401.1241    
    206000   1068.4726      77778.662      5880.7351     -1747.0612      68.917354     -1678.1439     -1392.6599    
    207000   1115.3789      75990.052      5880.7351     -1749.9591      71.942847     -1678.0162     -1399.0973    
    208000   1089.3527      77207.486      5880.7351     -1748.1502      70.264132     -1677.886      -1394.4986    
    209000   1103.9658      76279.958      5880.7351     -1748.9688      71.20669      -1677.7621     -1397.7791    
    210000   1118.3153      75923.398      5880.7351     -1749.7685      72.132248     -1677.6363     -1398.962     
    211000   1139.0832      75536.123      5880.7351     -1750.9823      73.471792     -1677.5105     -1400.2577    
    212000   1177.3165      73533.597      5880.7351     -1753.3188      75.937873     -1677.3809     -1407.4783    
    213000   1085.9339      77620.35       5880.7351     -1747.2919      70.04362      -1677.2482     -1392.3454    
    214000   1113.9286      76566.363      5880.7351     -1748.9697      71.849299     -1677.1204     -1396.0861    
    215000   1066.4613      78882.224      5880.7351     -1745.7742      68.787622     -1676.9865     -1387.452     
    216000   1136.0855      75369.344      5880.7351     -1750.1369      73.278435     -1676.8585     -1400.2178    
    217000   1136.3435      75921.478      5880.7351     -1750.0219      73.295079     -1676.7269     -1398.0596    
    218000   1085.5764      77691.723      5880.7351     -1746.61        70.020558     -1676.5895     -1391.4246    
    219000   1134.6533      76431.739      5880.7351     -1749.6421      73.186061     -1676.4561     -1395.9159    
    220000   1100.5407      78256.888      5880.7351     -1747.3077      70.98577      -1676.3219     -1389.0826    
    221000   1143.4414      76206.956      5880.7351     -1749.9424      73.7529       -1676.1895     -1396.4744    
    222000   1126.4231      77237.465      5880.7351     -1748.7106      72.655203     -1676.0554     -1392.5578    
    223000   1119.4736      77948.263      5880.7351     -1748.1244      72.206958     -1675.9174     -1389.811     
    224000   1167.1112      75968.055      5880.7351     -1751.0587      75.279618     -1675.7791     -1396.9409    
    225000   1189.6332      74897.991      5880.7351     -1752.3726      76.732308     -1675.6402     -1400.7297    
    226000   1125.8266      77727.844      5880.7351     -1748.1181      72.616728     -1675.5014     -1390.204     
    227000   1130.0185      77572.747      5880.7351     -1748.2489      72.887109     -1675.3618     -1390.6337    
    228000   1191.126       74852.581      5880.7351     -1752.0525      76.828595     -1675.2239     -1400.48      
    229000   1131.9564      77439.258      5880.7351     -1748.097       73.012109     -1675.0849     -1390.8467    
    230000   1161.4088      76797.461      5880.7351     -1749.8596      74.911814     -1674.9478     -1393.0653    
    231000   1147.5377      76805.341      5880.7351     -1748.8203      74.017114     -1674.8032     -1392.8917    
    232000   1122.2832      78226.651      5880.7351     -1747.0517      72.388175     -1674.6636     -1387.5353    
    233000   1145.2284      78410.238      5880.7351     -1748.3952      73.868164     -1674.5271     -1386.7249    
    234000   1173.667       76653.766      5880.7351     -1750.0879      75.702474     -1674.3854     -1393.0303    
    235000   1148.2273      77296.189      5880.7351     -1748.3048      74.061596     -1674.2432     -1390.5301    
    236000   1203.0865      75297.713      5880.7351     -1751.7026      77.600056     -1674.1026     -1397.7248    
    237000   1141.597       78102.887      5880.7351     -1747.5914      73.633936     -1673.9574     -1387.2834    
    238000   1135.6558      78795.834      5880.7351     -1747.0671      73.250722     -1673.8164     -1384.5989    
    239000   1129.6761      78609.017      5880.7351     -1746.5365      72.865028     -1673.6715     -1385.1397    
    240000   1121.583       79775.989      5880.7351     -1745.8684      72.343016     -1673.5253     -1380.7102    
    241000   1136.8463      78775.057      5880.7351     -1746.7081      73.327512     -1673.3806     -1384.2394    
    242000   1150.2551      77789.519      5880.7351     -1747.4307      74.19239      -1673.2383     -1387.7145    
    243000   1120.9638      80219.036      5880.7351     -1745.394       72.303078     -1673.0909     -1378.6496    
    244000   1194.5269      76541.138      5880.7351     -1749.9943      77.047955     -1672.9464     -1392.0047    
    245000   1110.3848      81369.896      5880.7351     -1744.4221      71.620719     -1672.8013     -1374.1359    
    246000   1226.615       75224.653      5880.7351     -1751.7727      79.117664     -1672.655      -1396.5455    
    247000   1116.142       80735.27       5880.7351     -1744.4994      71.992064     -1672.5073     -1376.1712    
    248000   1181.7688      78086.207      5880.7351     -1748.587       76.225045     -1672.362      -1385.7492    
    249000   1186.0556      77590.488      5880.7351     -1748.7136      76.501547     -1672.212      -1387.4188    
    250000   1179.0136      78410.416      5880.7351     -1748.1082      76.047338     -1672.0608     -1384.258     
    251000   1168.2839      78900.88       5880.7351     -1747.2671      75.355259     -1671.9119     -1382.3088    
    252000   1188.7107      77581.577      5880.7351     -1748.4348      76.672805     -1671.762      -1387.0015    
    253000   1198.3617      77378.048      5880.7351     -1748.9099      77.295306     -1671.6146     -1387.6011    
    254000   1173.7249      78812.016      5880.7351     -1747.1745      75.706207     -1671.4683     -1382.1914    
    255000   1158.0221      79471.632      5880.7351     -1746.0135      74.693364     -1671.3202     -1379.6222    
    256000   1208.7935      77650.399      5880.7351     -1749.1386      77.968163     -1671.1705     -1386.1573    
    257000   1192.7106      78280.73       5880.7351     -1747.9507      76.930805     -1671.0199     -1383.6931    
    258000   1133.4669      81567.667      5880.7351     -1743.9749      73.109533     -1670.8654     -1371.474     
    259000   1162.0848      79895.176      5880.7351     -1745.6658      74.955412     -1670.7104     -1377.4578    
    260000   1206.3443      78605.973      5880.7351     -1748.3708      77.810189     -1670.5606     -1382.04      
    261000   1155.2304      81145.786      5880.7351     -1744.9243      74.513299     -1670.411      -1372.5681    
    262000   1163.3807      80831.491      5880.7351     -1745.2966      75.038998     -1670.2576     -1373.5683    
    263000   1215.7426      77735.355      5880.7351     -1748.5256      78.416383     -1670.1092     -1384.7842    
    264000   1231.259       78197.393      5880.7351     -1749.3765      79.417206     -1669.9593     -1382.9384    
    265000   1168.4848      80703.079      5880.7351     -1745.1754      75.368216     -1669.8071     -1373.5892    
    266000   1208.7366      79074.188      5880.7351     -1747.6215      77.964491     -1669.657      -1379.4178    
    267000   1156.5305      81473.806      5880.7351     -1744.0973      74.597157     -1669.5002     -1370.4533    
    268000   1116.5258      83431.383      5880.7351     -1741.3602      72.016824     -1669.3433     -1363.1112    
    269000   1259.1642      77571.511      5880.7351     -1750.4087      81.217112     -1669.1916     -1384.4679    
    270000   1148.8999      81818.753      5880.7351     -1743.1392      74.10498      -1669.0342     -1368.7212    
    271000   1186.0094      80532.389      5880.7351     -1745.3768      76.498571     -1668.8782     -1373.2868    
    272000   1234.4111      79079.565      5880.7351     -1748.342       79.620517     -1668.7215     -1378.4626    
    273000   1164.6568      81155.782      5880.7351     -1743.6847      75.12131      -1668.5634     -1370.6838    
    274000   1131.2696      83958.457      5880.7351     -1741.3732      72.967809     -1668.4054     -1360.2387    
    275000   1209.126       80163.164      5880.7351     -1746.24        77.989611     -1668.2503     -1374.0141    
    276000   1170.9907      82695.55       5880.7351     -1743.6214      75.529849     -1668.0916     -1364.5603    
    277000   1197.759       80587.345      5880.7351     -1745.1895      77.25643      -1667.9331     -1372.1399    
    278000   1261.5842      78026.501      5880.7351     -1749.1479      81.373207     -1667.7747     -1381.381     
    279000   1138.3602      83543.551      5880.7351     -1741.0305      73.425157     -1667.6054     -1360.9616    
    280000   1150.4948      82778.355      5880.7351     -1741.6547      74.207851     -1667.4468     -1363.6116    
    281000   1165.9761      82622.843      5880.7351     -1742.4895      75.206408     -1667.2831     -1364.0187    
    282000   1159.2164      82835.918      5880.7351     -1741.8938      74.770398     -1667.1234     -1363.0769    
    283000   1151.4166      83520.798      5880.7351     -1741.2307      74.267307     -1666.9634     -1360.4031    
    284000   1206.614       81074.646      5880.7351     -1744.6286      77.827584     -1666.801      -1369.2193    
    285000   1224.168       80550.455      5880.7351     -1745.5997      78.95983      -1666.6399     -1370.9821    
    286000   1157.7381      84060.27       5880.7351     -1741.1442      74.675045     -1666.4692     -1357.9287    
    287000   1162.5931      84198.284      5880.7351     -1741.294       74.9882       -1666.3058     -1357.2588    
    288000   1210.1514      81985.117      5880.7351     -1744.1997      78.055751     -1666.1439     -1365.2203    
    289000   1238.2052      80704.481      5880.7351     -1745.8439      79.865239     -1665.9786     -1369.7556    
    290000   1233.3387      81309.759      5880.7351     -1745.3623      79.551348     -1665.811      -1367.3662    
    291000   1224.7636      81607.514      5880.7351     -1744.6434      78.998245     -1665.6452     -1366.1075    
    292000   1191.4989      83810.283      5880.7351     -1742.3304      76.852645     -1665.4778     -1357.855     
    293000   1258.4145      80431.303      5880.7351     -1746.4832      81.16876      -1665.3145     -1370.0941    
    294000   1253.1484      81177.818      5880.7351     -1745.9744      80.829092     -1665.1453     -1367.1848    
    295000   1186.8624      83882.092      5880.7351     -1741.5249      76.553587     -1664.9713     -1357.0849    
    296000   1253.6378      80720.026      5880.7351     -1745.6685      80.860657     -1664.8079     -1368.5277    
    297000   1183.2625      83605.637      5880.7351     -1740.9589      76.32139      -1664.6375     -1357.7658    
    298000   1215.7422      82685.278      5880.7351     -1742.8848      78.416357     -1664.4685     -1360.9749    
    299000   1243.4357      81994.89       5880.7351     -1744.503       80.202611     -1664.3004     -1363.3409    
    300000   1250.259       81884.181      5880.7351     -1744.7726      80.642722     -1664.1299     -1363.5767    
    301000   1216.3474      82652.903      5880.7351     -1742.4148      78.455397     -1663.9594     -1360.5847    
    302000   1189.1232      85483.517      5880.7351     -1740.4904      76.699412     -1663.791      -1350.0266    
    303000   1250.0472      82059.789      5880.7351     -1744.25        80.629062     -1663.621      -1362.4232    
    304000   1207.7775      84367.936      5880.7351     -1741.3501      77.902628     -1663.4475     -1353.7778    
    305000   1203.0089      83640.37       5880.7351     -1740.867       77.595051     -1663.272      -1356.2728    
    306000   1211.4345      84572.147      5880.7351     -1741.2367      78.138506     -1663.0982     -1352.679     
    307000   1210.4718      84220.847      5880.7351     -1741.0014      78.076413     -1662.925      -1353.7952    
    308000   1231.9299      83595.179      5880.7351     -1742.2117      79.46048      -1662.7512     -1355.9179    
    309000   1203.8251      85050.963      5880.7351     -1740.2264      77.647695     -1662.5788     -1350.402     
    310000   1221.7316      84355.379      5880.7351     -1741.2082      78.802679     -1662.4055     -1352.7819    
    311000   1224.2138      84579.261      5880.7351     -1741.1901      78.962785     -1662.2273     -1351.782     
    312000   1256.2348      83447.342      5880.7351     -1743.0804      81.028166     -1662.0523     -1355.7616    
    313000   1140.4676      88054.169      5880.7351     -1735.4351      73.561084     -1661.874      -1338.6742    
    314000   1279.2493      82988.574      5880.7351     -1744.2134      82.512619     -1661.7008     -1357.094     
    315000   1241.7164      84286.025      5880.7351     -1741.6205      80.091715     -1661.5288     -1352.1597    
    316000   1240.3806      84128.357      5880.7351     -1741.3585      80.005556     -1661.353      -1352.5626    
    317000   1236.0711      84600.29       5880.7351     -1740.8982      79.72759      -1661.1706     -1350.6481    
    318000   1240.8999      85404.114      5880.7351     -1741.0352      80.039054     -1660.9961     -1347.5232    
    319000   1280.4437      83094.758      5880.7351     -1743.4113      82.58966      -1660.8216     -1355.8251    
    320000   1256.167       83823.483      5880.7351     -1741.6672      81.023791     -1660.6434     -1352.9721    
    321000   1229.1473      86036.921      5880.7351     -1739.746       79.280998     -1660.465      -1344.6693    
    322000   1252.9775      84971.051      5880.7351     -1741.1012      80.818067     -1660.2832     -1348.3998    
    323000   1253.5191      85152.721      5880.7351     -1740.9563      80.853003     -1660.1033     -1347.5531    
    324000   1223.5301      86199.798      5880.7351     -1738.8359      78.918682     -1659.9172     -1343.5238    
    325000   1297.2266      83963.825      5880.7351     -1743.4083      83.672172     -1659.7361     -1351.5497    
    326000   1256.2946      85828.18       5880.7351     -1740.5874      81.032022     -1659.5554     -1344.526     
    327000   1280.8717      85125.884      5880.7351     -1741.989       82.617265     -1659.3718     -1346.9201    
    328000   1209.0938      87113.33       5880.7351     -1737.1758      77.987532     -1659.1882     -1339.4417    
    329000   1244.3443      86549.136      5880.7351     -1739.2712      80.261218     -1659.0099     -1341.3342    
    330000   1255.6643      86440.712      5880.7351     -1739.8196      80.991364     -1658.8282     -1341.5505    
    331000   1331.3873      82685.519      5880.7351     -1744.52        85.875562     -1658.6444     -1355.15      
    332000   1238.4568      87352.502      5880.7351     -1738.3401      79.881471     -1658.4586     -1337.8341    
    333000   1239.5892      88241.128      5880.7351     -1738.2283      79.954508     -1658.2738     -1334.3877    
    334000   1288.3093      85610.947      5880.7351     -1741.1864      83.096995     -1658.0894     -1343.8573    
    335000   1267.7618      86600.116      5880.7351     -1739.6769      81.771668     -1657.9053     -1340.0425    
    336000   1226.996       88234.097      5880.7351     -1736.8572      79.142238     -1657.715      -1333.8547    
    337000   1289.7518      85477.406      5880.7351     -1740.7196      83.190038     -1657.5296     -1343.7876    
    338000   1282.5718      86104.416      5880.7351     -1740.072       82.726926     -1657.3451     -1341.3017    
    339000   1253.7716      87577.101      5880.7351     -1738.0297      80.86929      -1657.1604     -1335.7116    
    340000   1297.5935      85613.698      5880.7351     -1740.6684      83.695834     -1656.9725     -1342.7303    
    341000   1317.5495      85222.989      5880.7351     -1741.7679      84.983016     -1656.7849     -1343.9768    
    342000   1321.628       84430.857      5880.7351     -1741.8403      85.24608      -1656.5942     -1346.6936    
    343000   1264.3251      87286.191      5880.7351     -1737.953       81.549997     -1656.403      -1336.0219    
    344000   1311.7377      85888.514      5880.7351     -1740.8252      84.608149     -1656.2171     -1340.9662    
    345000   1322.1893      85756.69       5880.7351     -1741.3116      85.282282     -1656.0294     -1341.2623    
    346000   1257.4408      88687.055      5880.7351     -1736.9473      81.105954     -1655.8414     -1330.3185    
    347000   1234.7         89724.652      5880.7351     -1735.2864      79.639154     -1655.6472     -1326.3159    
    348000   1272.838       88238.987      5880.7351     -1737.554       82.099085     -1655.4549     -1331.5767    
    349000   1306.8506      86926.792      5880.7351     -1739.5602      84.292928     -1655.2673     -1336.2054    
    350000   1250.8262      89725.758      5880.7351     -1735.7568      80.679307     -1655.0775     -1325.7421    
    351000   1254.6414      89810.848      5880.7351     -1735.8129      80.925387     -1654.8875     -1325.2398    
    352000   1288.5844      87902.99       5880.7351     -1737.8093      83.114742     -1654.6946     -1332.0496    
    353000   1317.7312      86314.386      5880.7351     -1739.4988      84.994734     -1654.504      -1337.69      
    354000   1348.1929      85400.286      5880.7351     -1741.2704      86.959537     -1654.3108     -1340.852     
    355000   1279.2781      89905.531      5880.7351     -1736.6298      82.514475     -1654.1153     -1324.1201    
    356000   1335.5472      86738.427      5880.7351     -1740.0618      86.143882     -1653.9179     -1335.5474    
    357000   1251.4093      90439.173      5880.7351     -1734.4395      80.716915     -1653.7225     -1321.7686    
    358000   1337.3376      87161.65       5880.7351     -1739.7873      86.259359     -1653.5279     -1333.604     
    359000   1297.401       89470.559      5880.7351     -1737.0177      83.683419     -1653.3343     -1324.9356    
    360000   1329.7365      87579.553      5880.7351     -1738.9073      85.769084     -1653.1382     -1331.6804    
    361000   1333.8056      87880.595      5880.7351     -1738.9731      86.031545     -1652.9415     -1330.3787    
    362000   1338.0647      87669.098      5880.7351     -1739.048       86.30626      -1652.7418     -1330.9553    
    363000   1330.5116      88741.466      5880.7351     -1738.3633      85.819081     -1652.5442     -1326.8216    
    364000   1303.3424      89396.166      5880.7351     -1736.4081      84.066642     -1652.3415     -1324.2158    
    365000   1385.1521      85902.212      5880.7351     -1741.4875      89.343434     -1652.144      -1336.8428    
    366000   1293.5662      90323.342      5880.7351     -1735.3794      83.436073     -1651.9433     -1320.4145    
    367000   1273.6844      91383.386      5880.7351     -1733.8938      82.153681     -1651.7402     -1316.3205    
    368000   1350.9554      88491.766      5880.7351     -1738.6783      87.137724     -1651.5406     -1326.7346    
    369000   1272.3327      91031.428      5880.7351     -1733.4041      82.066492     -1651.3376     -1317.2098    
    370000   1304.7591      90464.823      5880.7351     -1735.2964      84.158024     -1651.1384     -1319.0903    
    371000   1319.9063      90344.254      5880.7351     -1736.0793      85.135026     -1650.9443     -1319.3387    
    372000   1331.0252      89082.359      5880.7351     -1736.5964      85.852209     -1650.7442     -1323.7704    
    373000   1282.0992      92212.403      5880.7351     -1733.239       82.696437     -1650.5425     -1312.08      
    374000   1298.119       91554.045      5880.7351     -1734.0699      83.729728     -1650.3402     -1314.2941    
    375000   1297.153       92532.137      5880.7351     -1733.8008      83.667423     -1650.1334     -1310.4973    
    376000   1328.5178      90562.816      5880.7351     -1735.6201      85.690475     -1649.9296     -1317.5219    
    377000   1325.7667      90285.301      5880.7351     -1735.2355      85.513028     -1649.7224     -1318.3333    
    378000   1324.5597      91211.887      5880.7351     -1734.9485      85.435179     -1649.5133     -1314.7231    
    379000   1417.2249      87458.15       5880.7351     -1740.7248      91.412156     -1649.3126     -1328.3004    
    380000   1375.6316      89231.559      5880.7351     -1737.8357      88.729353     -1649.1063     -1321.5849    
    381000   1344.8065      90379.58       5880.7351     -1735.6451      86.741114     -1648.904      -1317.1688    
    382000   1286.372       92822.357      5880.7351     -1731.6722      82.972041     -1648.7001     -1307.9988    
    383000   1255.1689      94621.583      5880.7351     -1729.4493      80.959414     -1648.4898     -1301.1845    
    384000   1371.494       90110.255      5880.7351     -1736.7517      88.462476     -1648.2892     -1317.5425    
    385000   1361.698       90767.313      5880.7351     -1735.9126      87.830628     -1648.082      -1314.9236    
    386000   1358.3602      90954.034      5880.7351     -1735.4851      87.615334     -1647.8697     -1314.026     
    387000   1354.6756      91421.948      5880.7351     -1735.0381      87.377677     -1647.6605     -1312.0993    
    388000   1378.1159      90508.377      5880.7351     -1736.3406      88.889596     -1647.451      -1315.243     
    389000   1383.4265      90280.607      5880.7351     -1736.4723      89.232134     -1647.2402     -1315.8682    
    390000   1348.7787      91995.059      5880.7351     -1734.0283      86.997319     -1647.031      -1309.3662    
    391000   1353.9584      91663.692      5880.7351     -1734.1504      87.331414     -1646.819      -1310.3705    
    392000   1378.201       90492.074      5880.7351     -1735.5085      88.895087     -1646.6134     -1314.4653    
    393000   1360.7495      92545.417      5880.7351     -1734.1717      87.769446     -1646.4023     -1306.7174    
    394000   1388.0561      90849.444      5880.7351     -1735.7204      89.530745     -1646.1897     -1312.7298    
    395000   1353.1838      92911.599      5880.7351     -1733.2612      87.281453     -1645.9798     -1304.9508    
    396000   1345.3465      93147.599      5880.7351     -1732.5468      86.775943     -1645.7709     -1303.8757    
    397000   1322.4424      95032.132      5880.7351     -1730.8596      85.298609     -1645.561      -1296.7487    
    398000   1430.5204      89341.71       5880.7351     -1737.6154      92.269727     -1645.3457     -1317.42      
    399000   1340.1456      94585.572      5880.7351     -1731.5717      86.440481     -1645.1312     -1297.9581    
    400000   1387.9138      92113.226      5880.7351     -1734.4439      89.521571     -1644.9223     -1306.8238    
    401000   1366.829       93425.583      5880.7351     -1732.8659      88.16158      -1644.7044     -1301.7889    
    402000   1335.1769      94923.612      5880.7351     -1730.607       86.119997     -1644.487      -1296.073     
    403000   1328.2587      95653.757      5880.7351     -1729.947       85.673766     -1644.2732     -1293.1793    
    404000   1386.2975      93045.352      5880.7351     -1733.4755      89.417317     -1644.0582     -1302.5384    
    405000   1403.1273      93020.137      5880.7351     -1734.3466      90.502848     -1643.8437     -1302.4164    
    406000   1412.8473      91585.547      5880.7351     -1734.7619      91.129799     -1643.6321     -1307.4704    
    407000   1364.581       94519.705      5880.7351     -1731.4363      88.016581     -1643.4198     -1296.4883    
    408000   1369.9805      94117.992      5880.7351     -1731.5683      88.364857     -1643.2035     -1297.7465    
    409000   1400.7137      93413.097      5880.7351     -1733.3331      90.34717      -1642.9859     -1300.1163    
    410000   1357.3204      95793.285      5880.7351     -1730.319       87.548269     -1642.7708     -1291.1647    
    411000   1329.1614      96765.281      5880.7351     -1728.2819      85.731993     -1642.55       -1287.3762    
    412000   1374.0301      95179.302      5880.7351     -1730.9588      88.626054     -1642.3327     -1292.9803    
    413000   1453.2769      91842.669      5880.7351     -1735.8466      93.737542     -1642.109      -1305.0036    
    414000   1365.9262      95941.3        5880.7351     -1729.9934      88.103348     -1641.89       -1289.7407    
    415000   1430.3017      93493.389      5880.7351     -1733.9276      92.255619     -1641.672      -1298.5076    
    416000   1426.409       93697.535      5880.7351     -1733.4534      92.004536     -1641.4489     -1297.5352    
    417000   1395.6427      95461.325      5880.7351     -1731.2486      90.020087     -1641.2285     -1290.8409    
    418000   1399.0049      95368.696      5880.7351     -1731.2459      90.236955     -1641.0089     -1290.9613    
    419000   1325.8196      98435.118      5880.7351     -1726.3         85.516439     -1640.7836     -1279.4808    
    420000   1386.6589      95891.567      5880.7351     -1729.9994      89.440623     -1640.5587     -1288.592     
    421000   1421.3784      94976.946      5880.7351     -1732.022       91.680062     -1640.3419     -1291.7322    
    422000   1378.0186      96520.11       5880.7351     -1729.0007      88.88332      -1640.1173     -1285.8435    
    423000   1345.7613      97926.451      5880.7351     -1726.6982      86.8027       -1639.8955     -1280.4597    
    424000   1424.1102      94426.256      5880.7351     -1731.5243      91.856263     -1639.668      -1293.0796    
    425000   1486.507       92628.534      5880.7351     -1735.3277      95.880908     -1639.4467     -1299.4568    
    426000   1371.7628      97287.934      5880.7351     -1727.7023      88.479815     -1639.2225     -1282.1304    
    427000   1433.3937      95347.375      5880.7351     -1731.4531      92.455061     -1638.998      -1289.0287    
    428000   1483.9599      92921.193      5880.7351     -1734.4903      95.716622     -1638.7737     -1297.7096    
    429000   1377.2289      98587.667      5880.7351     -1727.3785      88.832385     -1638.5462     -1276.6834    
    430000   1350.8937      99491.569      5880.7351     -1725.4511      87.13374      -1638.3173     -1273.1369    
    431000   1437.3222      95711.953      5880.7351     -1730.8005      92.708446     -1638.092      -1286.7845    
    432000   1431.7355      97050.533      5880.7351     -1730.216       92.348105     -1637.8679     -1281.6472    
    433000   1439.9703      96073.708      5880.7351     -1730.5237      92.879253     -1637.6445     -1285.0092    
    434000   1466.0873      94866.271      5880.7351     -1731.9766      94.563824     -1637.4128     -1289.2093    
    435000   1404.2793      97780.911      5880.7351     -1727.7626      90.577153     -1637.1854     -1278.2839    
    436000   1470.757       95756.921      5880.7351     -1731.828       94.86502      -1636.9629     -1285.4904    
    437000   1409.3597      98093.204      5880.7351     -1727.6328      90.904848     -1636.7279     -1276.6801    
    438000   1384.5419      99450.992      5880.7351     -1725.804       89.30408      -1636.4999     -1271.4684    
    439000   1445.2367      96876.885      5880.7351     -1729.4892      93.218942     -1636.2702     -1280.6869    
    440000   1472.627       95755.12       5880.7351     -1731.0274      94.98564      -1636.0418     -1284.5758    
    441000   1465.8143      96701.136      5880.7351     -1730.3594      94.546215     -1635.8132     -1280.8749    
    442000   1450.9105      96690.885      5880.7351     -1729.165       93.584907     -1635.5801     -1280.6795    
    443000   1443.2676      98583.792      5880.7351     -1728.4453      93.091935     -1635.3533     -1273.5048    
    444000   1418.0311      99560.863      5880.7351     -1726.5866      91.464157     -1635.1225     -1269.6877    
    445000   1428.0213      98675.056      5880.7351     -1727.001       92.108536     -1634.8924     -1272.7089    
    446000   1422.5753      99875.163      5880.7351     -1726.4131      91.75726      -1634.6558     -1268.0674    
    447000   1473.5691      97180.068      5880.7351     -1729.4694      95.046403     -1634.423      -1277.7268    
    448000   1433.6951      99191.009      5880.7351     -1726.6617      92.474499     -1634.1872     -1270.11      
    449000   1372.5544      101443.4       5880.7351     -1722.4871      88.530876     -1633.9562     -1261.6116    
    450000   1371.7182      101962.63      5880.7351     -1722.1952      88.47694      -1633.7183     -1259.4679    
    451000   1539.8952      95801.057      5880.7351     -1732.8125      99.324494     -1633.488      -1281.8535    
    452000   1412.8424      100875.82      5880.7351     -1724.3792      91.129485     -1633.2497     -1262.9884    
    453000   1470.1051      98177.145      5880.7351     -1727.8374      94.822971     -1633.0145     -1272.6585    
    454000   1506.1331      97469.459      5880.7351     -1729.9296      97.146809     -1632.7827     -1275.0244    
    455000   1484.3562      98593.451      5880.7351     -1728.2914      95.742184     -1632.5492     -1270.6652    
    456000   1387.0079      103056.51      5880.7351     -1721.7759      89.463138     -1632.3128     -1254.0473    
    457000   1405.6045      101427.36      5880.7351     -1722.7389      90.662635     -1632.0763     -1259.7906    
    458000   1479.4669      98350.569      5880.7351     -1727.2653      95.42682      -1631.8385     -1270.8461    
    459000   1448.7909      100066.61      5880.7351     -1725.0483      93.448192     -1631.6001     -1264.309     
    460000   1358.7731      105285.91      5880.7351     -1719.0059      87.641966     -1631.3639     -1244.9155    
    461000   1484.1287      99286.34       5880.7351     -1726.857       95.727507     -1631.1294     -1266.7023    
    462000   1447.352       101294.58      5880.7351     -1724.2435      93.355381     -1630.8881     -1259.0897    
    463000   1420.3036      102543.48      5880.7351     -1722.2584      91.610738     -1630.6477     -1254.2653    
    464000   1479.2438      100686.75      5880.7351     -1725.8238      95.412427     -1630.4114     -1260.8441    
    465000   1496.9429      100178.89      5880.7351     -1726.7222      96.554031     -1630.1682     -1262.4649    
    466000   1463.3614      101266.3       5880.7351     -1724.3161      94.387998     -1629.9281     -1258.2336    
    467000   1546.1379      98274.248      5880.7351     -1729.4173      99.727149     -1629.6901     -1268.9778    
    468000   1495.789       100444.11      5880.7351     -1725.9257      96.479605     -1629.4461     -1260.7693    
    469000   1492.344       101217.39      5880.7351     -1725.4648      96.257402     -1629.2074     -1257.6924    
    470000   1458.3315      102021.11      5880.7351     -1723.0321      94.063565     -1628.9685     -1254.5035    
    471000   1458.0843      102223.66      5880.7351     -1722.7729      94.047621     -1628.7253     -1253.5168    
    472000   1462.2533      103364.65      5880.7351     -1722.7998      94.316527     -1628.4833     -1249.0868    
    473000   1472.8308      101924.36      5880.7351     -1723.2449      94.998781     -1628.2461     -1254.1362    
    474000   1507.6422      100338.05      5880.7351     -1725.2454      97.244145     -1628.0012     -1259.7138    
    475000   1474.7542      102656.18      5880.7351     -1722.8838      95.122842     -1627.761      -1250.9649    
    476000   1417.2875      105152.98      5880.7351     -1718.9344      91.416195     -1627.5182     -1241.5577    
    477000   1537.9463      100032.25      5880.7351     -1726.4792      99.198785     -1627.2804     -1260.1154    
    478000   1461.0866      103064.39      5880.7351     -1721.2737      94.241273     -1627.0324     -1248.738     
    479000   1482.963       103213.46      5880.7351     -1722.4353      95.65232      -1626.783      -1247.9414    
    480000   1426.8682      105234.74      5880.7351     -1718.564       92.034158     -1626.5298     -1240.2692    
    481000   1480.09        104352.87      5880.7351     -1721.7487      95.467008     -1626.2817     -1243.258     
    482000   1510.8237      102808.46      5880.7351     -1723.4868      97.449355     -1626.0374     -1248.6824    
    483000   1537.0717      101664.35      5880.7351     -1724.9372      99.142376     -1625.7948     -1252.6392    
    484000   1515.6168      103237.01      5880.7351     -1723.3021      97.758516     -1625.5436     -1246.6157    
    485000   1530.4109      103286.44      5880.7351     -1724.0085      98.712747     -1625.2957     -1246.1863    
    486000   1506.0387      103838.63      5880.7351     -1722.182       97.140722     -1625.0413     -1243.905     
    487000   1452.5971      106417.04      5880.7351     -1718.4869      93.693696     -1624.7932     -1234.1931    
    488000   1527.5821      103491.93      5880.7351     -1723.0707      98.530288     -1624.5404     -1244.6768    
    489000   1524.9827      102783.45      5880.7351     -1722.6571      98.362621     -1624.2945     -1247.0313    
    490000   1469.4126      106302         5880.7351     -1718.82        94.778307     -1624.0417     -1233.8638    
    491000   1540.1487      102348.68      5880.7351     -1723.1333      99.340839     -1623.7925     -1248.1251    
    492000   1510.9747      105107.56      5880.7351     -1721.002       97.459097     -1623.5429     -1237.7492    
    493000   1515.5246      104597.75      5880.7351     -1721.042       97.752566     -1623.2894     -1239.3669    
    494000   1557.91        103188.32      5880.7351     -1723.5262      100.48646     -1623.0398     -1244.2905    
    495000   1563.6566      103376.15      5880.7351     -1723.6484      100.85712     -1622.7913     -1243.3526    
    496000   1587.7086      103023.91      5880.7351     -1724.943       102.4085      -1622.5345     -1244.3887    
    497000   1561.4275      104026.3       5880.7351     -1722.9954      100.71334     -1622.282      -1240.457     
    498000   1546.9902      104336.17      5880.7351     -1721.8087      99.782122     -1622.0266     -1239.0641    
    499000   1492.5212      107012.65      5880.7351     -1718.0448      96.268829     -1621.776      -1228.9896    
    500000   1533.7038      106006.17      5880.7351     -1720.4482      98.92514      -1621.5231     -1232.431     
    501000   1536.212       105735.45      5880.7351     -1720.3568      99.086924     -1621.2699     -1233.1714    
    502000   1592.3432      102904.26      5880.7351     -1723.7222      102.70743     -1621.0148     -1243.3081    
    503000   1601.2839      103286.61      5880.7351     -1724.04        103.28411     -1620.7559     -1241.6458    
    504000   1521.4788      106806.35      5880.7351     -1718.6399      98.136621     -1620.5033     -1228.4741    
    505000   1574.9427      105020.39      5880.7351     -1721.831       101.58508     -1620.2459     -1234.7721    
    506000   1622.979       103212.17      5880.7351     -1724.6734      104.68347     -1619.9899     -1241.1531    
    507000   1524.8629      106651.49      5880.7351     -1718.0801      98.354898     -1619.7252     -1228.2645    
    508000   1455.6432      110351.79      5880.7351     -1713.3544      93.890169     -1619.4642     -1214.4216    
    509000   1576.5182      104981.19      5880.7351     -1720.8985      101.68671     -1619.2117     -1233.8818    
    510000   1585.0094      105694.51      5880.7351     -1721.1859      102.23439     -1618.9515     -1231.0034    
    511000   1433.1123      111477.18      5880.7351     -1711.1267      92.436907     -1618.6898     -1209.5165    
    512000   1565.5204      106960.49      5880.7351     -1719.4126      100.97734     -1618.4352     -1225.8403    
    513000   1557.6709      107350.78      5880.7351     -1718.6439      100.47104     -1618.1729     -1224.1454    
    514000   1494.0102      109731.81      5880.7351     -1714.2731      96.364871     -1617.9082     -1215.1413    
    515000   1457.2142      111847.29      5880.7351     -1711.6424      93.991501     -1617.6509     -1207.1191    
    516000   1571.4355      107315.2       5880.7351     -1718.7568      101.35887     -1617.3979     -1223.5011    
    517000   1553.429       108076.46      5880.7351     -1717.3314      100.19743     -1617.134      -1220.4429    
    518000   1554.6248      108678.73      5880.7351     -1717.1454      100.27456     -1616.8708     -1217.9692    
    519000   1553.2532      109021.95      5880.7351     -1716.8016      100.1861      -1616.6155     -1216.454     
    520000   1479.2825      112100.78      5880.7351     -1711.7642      95.414922     -1616.3493     -1204.8871    
    521000   1597.1845      107838.23      5880.7351     -1719.109       103.0197      -1616.0893     -1220.2727    
    522000   1551.0999      110378.11      5880.7351     -1715.8703      100.04721     -1615.8231     -1210.684     
    523000   1540.9903      110386.2       5880.7351     -1714.9528      99.395129     -1615.5577     -1210.3889    
    524000   1557.9092      109513.03      5880.7351     -1715.7815      100.48641     -1615.2951     -1213.3312    
    525000   1627.9109      107032.77      5880.7351     -1720.0348      105.00158     -1615.0333     -1222.1731    
    526000   1653.5311      105623.11      5880.7351     -1721.428       106.6541      -1614.7739     -1227.0878    
    527000   1584.2275      108725.39      5880.7351     -1716.6888      102.18396     -1614.5049     -1215.432     
    528000   1660.6293      105980.92      5880.7351     -1721.3536      107.11194     -1614.2417     -1225.2422    
    529000   1539.2931      111428.19      5880.7351     -1713.2649      99.285657     -1613.9793     -1204.9858    
    530000   1640.6315      107790.26      5880.7351     -1719.5335      105.82207     -1613.7114     -1218.0709    
    531000   1614.3842      108484.42      5880.7351     -1717.5705      104.12909     -1613.4414     -1215.253     
    532000   1590.4302      110331.03      5880.7351     -1715.7622      102.58404     -1613.1781     -1208.2118    
    533000   1666.2694      107266.35      5880.7351     -1720.3877      107.47573     -1612.912      -1219.1945    
    534000   1544.2229      111814.36      5880.7351     -1712.2467      99.603633     -1612.6431     -1202.2322    
    535000   1645.5253      108440.21      5880.7351     -1718.5139      106.13772     -1612.3762     -1214.3501    
    536000   1608.8199      110490.16      5880.7351     -1715.8818      103.77019     -1612.1116     -1206.5612    
    537000   1519.3492      114576.07      5880.7351     -1709.8403      97.999256     -1611.841      -1191.2934    
    538000   1629.3769      109420.42      5880.7351     -1716.6694      105.09613     -1611.5733     -1209.9493    
    539000   1670.5711      108405.61      5880.7351     -1719.0635      107.7532      -1611.3103     -1213.4112    
    540000   1652.6251      108411.79      5880.7351     -1717.632       106.59566     -1611.0363     -1213.1145    
    541000   1692.0026      107417.42      5880.7351     -1719.9045      109.13554     -1610.7689     -1216.4969    
    542000   1620.6827      111839.22      5880.7351     -1715.0394      104.53535     -1610.504      -1200.0019    
    543000   1549.2932      113413.54      5880.7351     -1710.1602      99.930668     -1610.2295     -1193.9489    
    544000   1658.8118      110102.71      5880.7351     -1716.9511      106.99471     -1609.9563     -1205.828     
    545000   1666.9604      109846.01      5880.7351     -1717.2086      107.5203      -1609.6883     -1206.5022    
    546000   1639.7545      109737.38      5880.7351     -1715.1736      105.7655      -1609.4081     -1206.6207    
    547000   1606.3185      113108.66      5880.7351     -1712.7469      103.60885     -1609.138      -1193.9765    
    548000   1690.1322      109592.82      5880.7351     -1717.885       109.0149      -1608.8701     -1206.6133    
    549000   1597.4039      112287.8       5880.7351     -1711.6285      103.03385     -1608.5947     -1196.4461    
    550000   1609.5298      113053.4       5880.7351     -1712.1341      103.81598     -1608.3181     -1193.3594    
    551000   1657.9951      110737.5       5880.7351     -1714.9877      106.94203     -1608.0456     -1201.5873    
    552000   1658.8687      111647.87      5880.7351     -1714.7718      106.99838     -1607.7734     -1197.9737    
    553000   1686.302       110484.21      5880.7351     -1716.2676      108.76785     -1607.4997     -1201.9711    
    554000   1676.3141      111062.62      5880.7351     -1715.3441      108.12362     -1607.2205     -1199.5689    
    555000   1691.0666      111537.42      5880.7351     -1716.0251      109.07517     -1606.95       -1197.5556    
    556000   1702.0977      111184.49      5880.7351     -1716.461       109.78668     -1606.6743     -1198.5753    
    557000   1616.4177      114505.3       5880.7351     -1710.656       104.26025     -1606.3958     -1186.1079    
    558000   1686.9665      112062.48      5880.7351     -1714.9292      108.81071     -1606.1185     -1194.7969    
    559000   1721.1832      110920.78      5880.7351     -1716.862       111.01772     -1605.8443     -1198.7133    
    560000   1630.874       114891.44      5880.7351     -1710.7569      105.1927      -1605.5642     -1183.859     
    561000   1594.3465      115659.84      5880.7351     -1708.1197      102.83664     -1605.283      -1180.7575    
    562000   1706.5236      111448.41      5880.7351     -1715.0809      110.07216     -1605.0088     -1195.9411    
    563000   1687.2595      113340.18      5880.7351     -1713.5598      108.82961     -1604.7302     -1188.7189    
    564000   1688.6198      113214.93      5880.7351     -1713.3617      108.91735     -1604.4444     -1188.8928    
    565000   1667.79        113991.47      5880.7351     -1711.7393      107.57381     -1604.1655     -1185.7637    
    566000   1810.8045      108746.05      5880.7351     -1720.6884      116.79836     -1603.89       -1204.7413    
    567000   1688.5328      113666.23      5880.7351     -1712.5208      108.91174     -1603.6091     -1186.401     
    568000   1621.8711      116801.2       5880.7351     -1707.9377      104.612       -1603.3257     -1174.6108    
    569000   1698.9839      113947.37      5880.7351     -1712.6331      109.58584     -1603.0472     -1184.8072    
    570000   1735.3568      113138.3       5880.7351     -1714.6954      111.93192     -1602.7635     -1187.4931    
    571000   1689.9388      115082.45      5880.7351     -1711.491       109.00243     -1602.4885     -1180.0823    
    572000   1616.7008      118679.52      5880.7351     -1706.4784      104.27852     -1602.1999     -1166.5907    
    573000   1645.4994      116674.57      5880.7351     -1708.0535      106.13605     -1601.9175     -1173.6674    
    574000   1664.2296      116300.52      5880.7351     -1708.981       107.34416     -1601.6369     -1174.7597    
    575000   1696.6785      114960.25      5880.7351     -1710.7909      109.43714     -1601.3538     -1179.396     
    576000   1714.3251      115264.24      5880.7351     -1711.6417      110.57536     -1601.0664     -1177.9928    
    577000   1746.0445      113234.38      5880.7351     -1713.4056      112.62129     -1600.7844     -1185.1614    
    578000   1671.8324      117067.81      5880.7351     -1708.3349      107.83455     -1600.5004     -1170.8069    
    579000   1701.8904      116183.89      5880.7351     -1709.9927      109.77331     -1600.2194     -1173.7703    
    580000   1709.0979      116498.8       5880.7351     -1710.1731      110.2382      -1599.9349     -1172.3299    
    581000   1734.6268      115497.18      5880.7351     -1711.5266      111.88483     -1599.6418     -1175.7132    
    582000   1615.089       120940.31      5880.7351     -1703.5319      104.17456     -1599.3574     -1155.45      
    583000   1620.9949      120129.3       5880.7351     -1703.63        104.55549     -1599.0745     -1158.144     
    584000   1685.7553      119163.89      5880.7351     -1707.5241      108.73258     -1598.7915     -1161.4044    
    585000   1749.272       115674.43      5880.7351     -1711.3313      112.82947     -1598.5019     -1173.9227    
    586000   1665.6062      119157.7       5880.7351     -1705.6475      107.43295     -1598.2145     -1160.8502    
    587000   1696.4662      117214.36      5880.7351     -1707.3463      109.42345     -1597.9229     -1167.6915    
    588000   1626.1788      120251.62      5880.7351     -1702.523       104.88986     -1597.6331     -1156.2536    
    589000   1749.9088      116187.6       5880.7351     -1710.2225      112.87054     -1597.352      -1170.8893    
    590000   1778.5634      115960.7       5880.7351     -1711.782       114.71879     -1597.0633     -1171.4334    
    591000   1799.9993      115461.61      5880.7351     -1712.8814      116.10142     -1596.78       -1172.982     
    592000   1751.8685      117781.69      5880.7351     -1709.4934      112.99694     -1596.4964     -1164.1827    
    593000   1625.8935      121588.06      5880.7351     -1701.0713      104.87145     -1596.1998     -1149.9149    
    594000   1802.7568      114547.31      5880.7351     -1712.197       116.27928     -1595.9177     -1175.4756    
    595000   1748.1952      117122.93      5880.7351     -1708.3825      112.76001     -1595.6225     -1165.7267    
    596000   1698.4266      120333.93      5880.7351     -1704.8811      109.54989     -1595.3312     -1153.6495    
    597000   1730.0634      118615.92      5880.7351     -1706.633       111.59049     -1595.0426     -1159.6668    
    598000   1745.3231      118965.9       5880.7351     -1707.3219      112.57476     -1594.7472     -1158.0868    
    599000   1726.6764      120150.24      5880.7351     -1705.8281      111.37203     -1594.4561     -1153.4486    
    600000   1657.3831      122237.46      5880.7351     -1701.0599      106.90256     -1594.1573     -1145.4888    
    601000   1784.0668      117251.42      5880.7351     -1708.9433      115.07376     -1593.8696     -1163.5022    
    602000   1703.6798      120946.61      5880.7351     -1703.4569      109.88873     -1593.5681     -1149.6376    
    603000   1773.9202      118699.9       5880.7351     -1707.6905      114.41929     -1593.2712     -1157.5872    
    604000   1724.706       121767.08      5880.7351     -1704.2225      111.24494     -1592.9776     -1146.0356    
    605000   1767.3149      120263.93      5880.7351     -1706.6782      113.99325     -1592.685      -1151.2603    
    606000   1743.9818      119626.01      5880.7351     -1704.8788      112.48825     -1592.3906     -1153.3073    
    607000   1740.4622      120805.02      5880.7351     -1704.3571      112.26123     -1592.0958     -1148.6851    
    608000   1748.5558      120827.98      5880.7351     -1704.5779      112.78327     -1591.7946     -1148.2995    
    609000   1725.5748      122430.94      5880.7351     -1702.7981      111.30098     -1591.4971     -1142.1185    
    610000   1791.5365      119991.04      5880.7351     -1706.7595      115.55556     -1591.204      -1150.7809    
    611000   1841.4202      117950.86      5880.7351     -1709.6846      118.7731      -1590.9115     -1157.9768    
    612000   1755.9065      122011.1       5880.7351     -1703.8669      113.25739     -1590.6095     -1142.7718    
    613000   1831.4663      119490.66      5880.7351     -1708.4439      118.13106     -1590.3128     -1151.7263    
    614000   1774.1708      121397.74      5880.7351     -1704.4555      114.43546     -1590.02       -1144.4337    
    615000   1740.7666      122926.06      5880.7351     -1702.0025      112.28086     -1589.7216     -1138.5257    
    616000   1815.351       120503.87      5880.7351     -1706.5089      117.09161     -1589.4173     -1147.1119    
    617000   1677.7193      127266.39      5880.7351     -1697.3379      108.21426     -1589.1236     -1121.9966    
    618000   1800.769       120614.77      5880.7351     -1704.9752      116.15106     -1588.8241     -1146.1116    
    619000   1746.2327      124304.88      5880.7351     -1701.16        112.63343     -1588.5266     -1132.2697    
    620000   1845.1915      120284.5       5880.7351     -1707.2418      119.01635     -1588.2254     -1146.7252    
    621000   1761.4447      124574.46      5880.7351     -1701.5403      113.61461     -1587.9257     -1130.6793    
    622000   1745.5577      124979.45      5880.7351     -1700.2138      112.58989     -1587.6239     -1128.891     
    623000   1747.3804      125055.97      5880.7351     -1700.0254      112.70746     -1587.318      -1128.3042    
    624000   1873.3043      119325.14      5880.7351     -1707.8557      120.82965     -1587.0261     -1149.0472    
    625000   1805.6475      123081.86      5880.7351     -1703.1928      116.46573     -1586.7271     -1134.9593    
    626000   1819.1217      122592.37      5880.7351     -1703.7653      117.33483     -1586.4305     -1136.4593    
    627000   1813.6581      122259.62      5880.7351     -1703.1147      116.98242     -1586.1322     -1137.3824    
    628000   1735.5978      127543.27      5880.7351     -1697.7788      111.94747     -1585.8313     -1117.688     
    629000   1817.5206      122588.04      5880.7351     -1702.7542      117.23155     -1585.5226     -1135.5673    
    630000   1821.8603      123514.44      5880.7351     -1702.7349      117.51147     -1585.2234     -1131.8678    
    631000   1811.891       123146.59      5880.7351     -1701.7918      116.86844     -1584.9234     -1132.9179    
    632000   1845.1623      122539.08      5880.7351     -1703.6366      119.01447     -1584.6222     -1134.8466    
    633000   1921.9326      120236.81      5880.7351     -1708.2785      123.96621     -1584.3123     -1142.9871    
    634000   1805.132       125334.65      5880.7351     -1700.4434      116.43248     -1584.0109     -1123.9742    
    635000   1775.0341      125806.55      5880.7351     -1698.1983      114.49114     -1583.7071     -1121.9384    
    636000   1823.0969      124704.17      5880.7351     -1700.9978      117.59123     -1583.4066     -1125.6841    
    637000   1864.6333      123246.86      5880.7351     -1703.3734      120.27036     -1583.103      -1130.7296    
    638000   1774.4283      127650.76      5880.7351     -1697.2463      114.45207     -1582.7943     -1114.2564    
    639000   1850.2471      125058.44      5880.7351     -1701.8322      119.34244     -1582.4897     -1123.4669    
    640000   1871.9473      123266.11      5880.7351     -1702.925       120.74212     -1582.1829     -1129.7387    
    641000   1880.8866      124543.21      5880.7351     -1703.1849      121.31871     -1581.8662     -1124.7346    
    642000   1850.6914      124930.25      5880.7351     -1700.9377      119.3711      -1581.5666     -1123.0143    
    643000   1780.3853      128156.76      5880.7351     -1696.0956      114.8363      -1581.2593     -1110.8641    
    644000   1802.5468      127794.96      5880.7351     -1697.223       116.26573     -1580.9573     -1111.8902    
    645000   1910.0863      123788.79      5880.7351     -1703.8588      123.20212     -1580.6567     -1126.2941    
    646000   1906.026       124229.92      5880.7351     -1703.2907      122.94023     -1580.3504     -1124.3687    
    647000   1835.7144      127300.56      5880.7351     -1698.4493      118.40507     -1580.0443     -1112.7918    
    648000   1931.668       122974.32      5880.7351     -1704.3264      124.59415     -1579.7323     -1128.3591    
    649000   1922.7277      123177.71      5880.7351     -1703.4413      124.0175      -1579.4238     -1127.3042    
    650000   1915.6372      123616.54      5880.7351     -1702.6698      123.56016     -1579.1096     -1125.3793    
    651000   1886.168       124803.96      5880.7351     -1700.4567      121.65937     -1578.7973     -1120.7086    
    652000   1931.6253      123730.11      5880.7351     -1703.0854      124.5914      -1578.494      -1124.3468    
    653000   1914.6739      124972.18      5880.7351     -1701.6802      123.49802     -1578.1821     -1119.4759    
    654000   1855.5052      127439.23      5880.7351     -1697.5473      119.6816      -1577.8657     -1110.1043    
    655000   1856.6721      128480.85      5880.7351     -1697.3076      119.75686     -1577.5507     -1105.9661    
    656000   1801.1675      131396.55      5880.7351     -1693.4214      116.17676     -1577.2446     -1094.958     
    657000   1912.6491      126319.84      5880.7351     -1700.3073      123.36742     -1576.9399     -1113.2871    
    658000   1873.7631      127709.78      5880.7351     -1697.4779      120.85924     -1576.6187     -1107.8642    
    659000   1945.5627      125090.66      5880.7351     -1701.7959      125.49038     -1576.3055     -1117.1644    
    660000   1893.1602      128868.73      5880.7351     -1698.1039      122.11037     -1575.9935     -1102.9851    
    661000   1863.9883      128895.42      5880.7351     -1695.9095      120.22876     -1575.6807     -1102.5744    
    662000   1895.9725      128567.69      5880.7351     -1697.6679      122.29177     -1575.3761     -1103.4728    
    663000   1859.9362      130019.9       5880.7351     -1695.0334      119.9674      -1575.066      -1097.8323    
    664000   1925.5203      127730.89      5880.7351     -1698.95        124.19762     -1574.7524     -1105.9205    
    665000   1934.6116      127747.62      5880.7351     -1699.2269      124.78402     -1574.4428     -1105.5495    
    666000   1905.4793      128817.83      5880.7351     -1697.0318      122.90496     -1574.1269     -1101.3053    
    667000   1875.0275      129650.68      5880.7351     -1694.7553      120.9408      -1573.8145     -1097.9361    
[...]
    818000   2202.6849      157760.65      5880.7351     -1665.093       142.07496     -1523.018      -943.96288    
    819000   2209.209       157697.55      5880.7351     -1665.1486      142.49577     -1522.6528     -943.82923    
    820000   2262.8799      155578.19      5880.7351     -1668.2525      145.95759     -1522.2949     -951.25033    
    821000   2297.7575      154752.96      5880.7351     -1670.1393      148.20722     -1521.932      -953.91648    
    822000   2194.117       160444.23      5880.7351     -1663.1031      141.52233     -1521.5807     -932.67558    
    823000   2232.0876      157315.99      5880.7351     -1665.1901      143.97146     -1521.2186     -943.79556    
    824000   2352.2824      153151.49      5880.7351     -1672.5914      151.72413     -1520.8673     -958.72988    
    825000   2273.0803      157230.24      5880.7351     -1667.125       146.61552     -1520.5095     -943.40116    
    826000   2267.6494      155883.89      5880.7351     -1666.4252      146.26523     -1520.1599     -947.99334    
    827000   2382.4079      153690.42      5880.7351     -1673.4738      153.66724     -1519.8065     -955.691      
    828000   2311.3047      157947.39      5880.7351     -1668.5228      149.08103     -1519.4417     -939.70114    
    829000   2344.0304      155617.85      5880.7351     -1670.2846      151.19186     -1519.0928     -947.90268    
    830000   2247.001       158981.12      5880.7351     -1663.6639      144.93339     -1518.7306     -935.1957     
    831000   2219.6044      160232.89      5880.7351     -1661.5385      143.16629     -1518.3722     -930.24273    
    832000   2348.93        156072.08      5880.7351     -1669.5323      151.50789     -1518.0244     -945.16706    
    833000   2104.5785      165117.32      5880.7351     -1653.4051      135.74702     -1517.6581     -911.6005     
    834000   2274.1714      159720.95      5880.7351     -1663.9851      146.6859      -1517.2992     -931.0488     
    835000   2247.6752      161842.32      5880.7351     -1661.9171      144.97687     -1516.9402     -922.90339    
    836000   2159.5709      164504.42      5880.7351     -1655.8796      139.29408     -1516.5856     -912.77758    
    837000   2292.2826      159785.76      5880.7351     -1664.0879      147.85409     -1516.2338     -929.7455     
    838000   2253.0676      162189.55      5880.7351     -1661.1984      145.32469     -1515.8737     -920.56238    
    839000   2197.7089      163729.56      5880.7351     -1657.2626      141.75401     -1515.5086     -914.54469    
    840000   2265.2801      161565.03      5880.7351     -1661.2599      146.1124      -1515.1475     -922.12847    
    841000   2331.732       159544.16      5880.7351     -1665.189       150.39861     -1514.7904     -929.18893    
    842000   2244.339       161753.67      5880.7351     -1659.1832      144.76169     -1514.4215     -920.71005    
    843000   2242.8599      164225.61      5880.7351     -1658.7235      144.66629     -1514.0572     -911.27262    
    844000   2375.4341      159681.23      5880.7351     -1666.9147      153.21743     -1513.6972     -927.59264    
    845000   2357.8176      160183.73      5880.7351     -1665.4211      152.08115     -1513.3399     -925.39092    
    846000   2254.5216      162703.57      5880.7351     -1658.3914      145.41848     -1512.973      -915.77496    
    847000   2313.8428      161331.35      5880.7351     -1661.8565      149.24474     -1512.6118     -920.45049    
    848000   2332.6276      160208.6       5880.7351     -1662.7009      150.45637     -1512.2445     -924.20421    
    849000   2238.6969      165828.27      5880.7351     -1656.2826      144.39777     -1511.8848     -903.21772    
    850000   2283.6097      164603.69      5880.7351     -1658.8216      147.29468     -1511.527      -907.35464    
    851000   2343.133       162912.97      5880.7351     -1662.3091      151.13398     -1511.1751     -913.20856    
    852000   2370.4522      161128.34      5880.7351     -1663.7182      152.8961      -1510.8221     -919.40597    
    853000   2359.3905      162338.4       5880.7351     -1662.6494      152.18261     -1510.4668     -914.60912    
    854000   2354.3499      162050.29      5880.7351     -1661.9562      151.85748     -1510.0988     -915.29859    
    855000   2303.0787      163270.56      5880.7351     -1658.2747      148.55045     -1509.7243     -910.44515    
    856000   2318.5176      162905.54      5880.7351     -1658.8984      149.54627     -1509.3521     -911.41282    
    857000   2250.9257      167368.5       5880.7351     -1654.1736      145.18654     -1508.987      -894.66659    
    858000   2270.4509      167878.75      5880.7351     -1655.065       146.44592     -1508.6191     -892.42577    
    859000   2370.9941      163724.33      5880.7351     -1661.1879      152.93104     -1508.2568     -907.31219    
    860000   2265.1413      166548.88      5880.7351     -1653.9852      146.10346     -1507.8817     -896.56965    
    861000   2365.2437      163430.36      5880.7351     -1660.0743      152.56014     -1507.5141     -907.6485     
    862000   2438.3092      161674.44      5880.7351     -1664.4155      157.27293     -1507.1425     -913.72193    
    863000   2297.6092      166937.68      5880.7351     -1654.9682      148.19766     -1506.7705     -894.03137    
    864000   2341.6767      164906.01      5880.7351     -1657.4294      151.04005     -1506.3894     -901.10739    
    865000   2456.7619      161608.21      5880.7351     -1664.4962      158.46314     -1506.0331     -912.85553    
    866000   2344.5135      164526.78      5880.7351     -1656.8814      151.22303     -1505.6584     -901.76838    
    867000   2435.0492      162458.44      5880.7351     -1662.3563      157.06265     -1505.2937     -908.99541    
    868000   2407.2397      164289.87      5880.7351     -1660.1911      155.26892     -1504.9222     -901.90169    
    869000   2399.7019      164407.93      5880.7351     -1659.3416      154.78272     -1504.5589     -901.10513    
    870000   2304.7544      169206.93      5880.7351     -1652.8436      148.65853     -1504.1851     -883.1167     
    871000   2423.9008      164475.62      5880.7351     -1660.163       156.34357     -1503.8194     -900.11713    
    872000   2380.5134      167436.97      5880.7351     -1657.0007      153.54505     -1503.4556     -888.88384    
    873000   2310.891       169374.12      5880.7351     -1652.1331      149.05435     -1503.0788     -881.39672    
    874000   2315.1682      169069.97      5880.7351     -1652.0433      149.33023     -1502.7131     -882.14743    
    875000   2319.6565      170265.94      5880.7351     -1651.9679      149.61973     -1502.3482     -877.39278    
    876000   2466.6542      163442.03      5880.7351     -1661.0865      159.1012      -1501.9853     -902.07681    
    877000   2243.532       174371.05      5880.7351     -1646.319       144.70964     -1501.6094     -861.58624    
    878000   2451.6741      166308.33      5880.7351     -1659.3831      158.13497     -1501.2481     -890.81896    
    879000   2402.1379      166908.7       5880.7351     -1655.8255      154.93985     -1500.8857     -888.25288    
    880000   2467.1214      165764.37      5880.7351     -1659.6518      159.13134     -1500.5205     -892.08791    
    881000   2468.5993      166513.64      5880.7351     -1659.3777      159.22666     -1500.1511     -888.96833    
    882000   2414.641       166353.61      5880.7351     -1655.5186      155.7463      -1499.7723     -889.17696    
    883000   2302.734       173256.39      5880.7351     -1647.9308      148.52821     -1499.4025     -863.47078    
    884000   2298.04        173572.52      5880.7351     -1647.273       148.22545     -1499.0476     -861.95548    
    885000   2303.4355      173027.85      5880.7351     -1647.2572      148.57346     -1498.6838     -863.59087    
    886000   2503.8455      165364.39      5880.7351     -1659.8266      161.50007     -1498.3265     -891.36205    
    887000   2367.7474      171175.71      5880.7351     -1650.6714      152.72163     -1497.9497     -869.65506    
    888000   2400.7615      170045.65      5880.7351     -1652.432       154.85107     -1497.581      -873.4341     
    889000   2483.6095      168156.94      5880.7351     -1657.4103      160.19483     -1497.2154     -880.00104    
    890000   2422.9504      168136.5       5880.7351     -1653.1306      156.28227     -1496.8484     -879.70899    
    891000   2432.6662      168602.61      5880.7351     -1653.3909      156.90895     -1496.4819     -877.63171    
    892000   2303.4912      174730.62      5880.7351     -1644.6815      148.57706     -1496.1044     -854.76153    
    893000   2339.5749      171992.6       5880.7351     -1646.6287      150.90448     -1495.7242     -864.43109    
    894000   2467.1483      168603.78      5880.7351     -1654.4963      159.13307     -1495.3632     -876.50871    
    895000   2428.9565      170055.69      5880.7351     -1651.6577      156.66967     -1494.9881     -870.80436    
    896000   2469.1253      170444.59      5880.7351     -1653.8755      159.26059     -1494.6149     -869.00376    
    897000   2482.5349      169768.4       5880.7351     -1654.3752      160.12552     -1494.2497     -871.12047    
    898000   2439.0029      172075.69      5880.7351     -1651.1931      157.31767     -1493.8755     -862.27744    
    899000   2446.9149      172071.11      5880.7351     -1651.3411      157.828       -1493.5131     -861.93186    
    900000   2342.5076      174912.98      5880.7351     -1644.2354      151.09364     -1493.1417     -851.12952    
    901000   2234.5638      180665.74      5880.7351     -1636.9188      144.13118     -1492.7877     -829.66014    
    902000   2242.4119      180405.09      5880.7351     -1637.0915      144.63739     -1492.4541     -830.28328    
    903000   2367.5057      175738.8       5880.7351     -1644.8135      152.70604     -1492.1074     -847.06406    
    904000   2349.8759      175704.57      5880.7351     -1643.3104      151.5689      -1491.7414     -846.82371    
    905000   2345.2427      177705.04      5880.7351     -1642.6398      151.27006     -1491.3697     -839.10934    
    906000   2319.803       177611.23      5880.7351     -1640.6303      149.62918     -1491.0011     -839.08502    
    907000   2465.5746      173868.25      5880.7351     -1649.6731      159.03156     -1490.6416     -852.46399    
    908000   2260.947       182106.25      5880.7351     -1636.0995      145.83292     -1490.2665     -821.85167    
    909000   2368.1908      179557.01      5880.7351     -1642.6406      152.75023     -1489.8904     -830.83241    
    910000   2391.1907      176896.94      5880.7351     -1643.7478      154.23374     -1489.5141     -840.21981    
    911000   2365.629       177947.03      5880.7351     -1641.7169      152.58499     -1489.1319     -835.98329    
    912000   2395.2417      177499.97      5880.7351     -1643.245       154.49503     -1488.75       -837.24234    
    913000   2480.0063      174077.76      5880.7351     -1648.3309      159.96242     -1488.3685     -849.42189    
    914000   2459.9242      175800.52      5880.7351     -1646.6538      158.66711     -1487.9867     -842.71679    
    915000   2429.7226      177276.28      5880.7351     -1644.3162      156.71908     -1487.5971     -836.91049    
    916000   2570.3746      172645.3       5880.7351     -1653.0171      165.79125     -1487.2259     -853.53709    
    917000   2458.6305      176747.49      5880.7351     -1645.4206      158.58366     -1486.8369     -838.09119    
    918000   2529.8214      173339.2       5880.7351     -1649.6373      163.17553     -1486.4617     -850.226      
    919000   2579.896       172249.66      5880.7351     -1652.4829      166.40539     -1486.0775     -853.84091    
    920000   2584.3025      172053.98      5880.7351     -1652.3716      166.68961     -1485.682      -854.16362    
    921000   2371.6644      180355.5       5880.7351     -1638.2692      152.97428     -1485.2949     -823.30612    
    922000   2570.8878      174140.47      5880.7351     -1650.746       165.82435     -1484.9217     -845.74492    
    923000   2463.1045      177020.67      5880.7351     -1643.419       158.87224     -1484.5468     -834.79836    
    924000   2442.6412      180002.3       5880.7351     -1641.737       157.55234     -1484.1846     -823.4922     
    925000   2125.4419      190944.43      5880.7351     -1620.9187      137.09273     -1483.8259     -782.9708     
    926000   2173.76        189361.68      5880.7351     -1623.6904      140.20929     -1483.4811     -788.43543    
    927000   2110.4856      194195.45      5880.7351     -1619.2839      136.12804     -1483.1559     -770.36803    
    928000   2094.9896      193766.58      5880.7351     -1617.9445      135.12853     -1482.8159     -771.60223    
    929000   2104.038       192293.58      5880.7351     -1618.1955      135.71216     -1482.4833     -776.67619    
    930000   2197.1286      189623.2       5880.7351     -1623.8741      141.71658     -1482.1575     -786.15192    
    931000   2112.9926      192487.92      5880.7351     -1618.1059      136.28974     -1481.8162     -775.29575    
    932000   2209.4865      191234.19      5880.7351     -1623.9894      142.51367     -1481.4757     -779.55701    
    933000   2078.5311      193406.55      5880.7351     -1615.1872      134.06694     -1481.1203     -771.22803    
    934000   2039.13        198108.61      5880.7351     -1612.3021      131.52554     -1480.7765     -753.6255     
    935000   2258.3806      190111.33      5880.7351     -1626.087       145.66739     -1480.4197     -782.62238    
    936000   2120.3192      195486.51      5880.7351     -1616.8189      136.76231     -1480.0566     -762.52992    
    937000   2147.4637      193551.22      5880.7351     -1618.2057      138.51315     -1479.6926     -769.26932    
    938000   2108.1777      195849.53      5880.7351     -1615.3024      135.97918     -1479.3232     -760.46411    
    939000   2269.1482      189955.97      5880.7351     -1625.3211      146.3619      -1478.9592     -781.7322     
    940000   2094.1868      197360.05      5880.7351     -1613.6649      135.07675     -1478.5881     -754.18471    
    941000   2167.3136      194537.79      5880.7351     -1618.0084      139.79349     -1478.2149     -764.17047    
    942000   2126.4337      195117.81      5880.7351     -1614.9936      137.1567      -1477.8369     -761.66355    
    943000   2084.8312      196777.58      5880.7351     -1611.9278      134.47331     -1477.4544     -755.18893    
    944000   2144.6391      196542.32      5880.7351     -1615.4077      138.33096     -1477.0768     -755.67478    
    945000   2143.652       197838.37      5880.7351     -1614.9624      138.26729     -1476.6951     -750.53605    
    946000   2179.455       194966.9       5880.7351     -1616.8897      140.57662     -1476.3131     -760.69364    
    947000   2243.2017      193315.85      5880.7351     -1620.6149      144.68833     -1475.9266     -766.36726    
    948000   2287.4085      192049.85      5880.7351     -1623.064       147.5397      -1475.5243     -770.61171    
    949000   2216.5272      194351.93      5880.7351     -1618.1017      142.96781     -1475.1339     -761.77163    
    950000   2213.9825      194349.02      5880.7351     -1617.5442      142.80367     -1474.7405     -761.38898    
    951000   2153.1523      199057.01      5880.7351     -1613.2258      138.88007     -1474.3457     -743.71367    
    952000   2125.4273      199028.9       5880.7351     -1611.0377      137.09179     -1473.946      -743.41706    
    953000   2174.6636      196878.53      5880.7351     -1613.8079      140.26757     -1473.5404     -750.90434    
    954000   2206.6975      196863.16      5880.7351     -1615.4765      142.33378     -1473.1427     -750.56308    
    955000   2143.1325      198462.45      5880.7351     -1610.9768      138.23379     -1472.743      -744.29323    
    956000   2168.995       199653.36      5880.7351     -1612.2463      139.90194     -1472.3444     -739.5234     
    957000   2153.757       200422.12      5880.7351     -1610.8673      138.91908     -1471.9482     -736.30558    
    958000   2164.6721      198231.34      5880.7351     -1611.1585      139.62311     -1471.5354     -743.93392    
    959000   2136.8195      199732.23      5880.7351     -1608.9623      137.82659     -1471.1357     -738.02523    
    960000   2140.0682      200904.57      5880.7351     -1608.7607      138.03614     -1470.7246     -733.31108    
    961000   2176.747       200188.27      5880.7351     -1610.7279      140.40195     -1470.326      -735.54165    
    962000   2188.2453      199571.33      5880.7351     -1611.0666      141.1436      -1469.923      -737.40309    
    963000   2228.8462      197631.74      5880.7351     -1613.2717      143.76239     -1469.5093     -744.10866    
    964000   2291.7838      197694.25      5880.7351     -1616.9209      147.82191     -1469.099      -743.46889    
    965000   2070.4948      205523.77      5880.7351     -1602.2252      133.5486      -1468.6766     -714.30853    
    966000   2112.9871      202757.06      5880.7351     -1604.5542      136.28938     -1468.2648     -724.05183    
    967000   2313.6797      195904.62      5880.7351     -1617.0861      149.23422     -1467.8519     -748.79054    
    968000   2185.9564      202891.91      5880.7351     -1608.4336      140.99596     -1467.4376     -722.72965    
    969000   2283.1853      198559.17      5880.7351     -1614.2906      147.2673      -1467.0233     -738.21847    
    970000   2237.0594      200673.91      5880.7351     -1610.895       144.29215     -1466.6028     -730.03598    
    971000   2205.6318      203766.81      5880.7351     -1608.4458      142.26505     -1466.1808     -718.26155    
    972000   2155.293       206543.82      5880.7351     -1604.7783      139.01815     -1465.7602     -707.648      
    973000   2316.425       197578.19      5880.7351     -1614.753       149.41129     -1465.3417     -740.13763    
    974000   2220.5344      201753.99      5880.7351     -1608.138       143.22627     -1464.9117     -724.38047    
    975000   2259.5984      200183.1       5880.7351     -1610.2407      145.74593     -1464.4948     -729.72945    
    976000   2162.7544      204933.6       5880.7351     -1603.5732      139.49942     -1464.0738     -711.87186    
    977000   2194.2794      204637.62      5880.7351     -1605.185       141.5328      -1463.6522     -712.53663    
    978000   2349.9727      199771.93      5880.7351     -1614.807       151.57515     -1463.2318     -729.97568    
    979000   2128.7457      208748.62      5880.7351     -1600.1078      137.30583     -1462.802      -696.59714    
    980000   2213.579       204182.87      5880.7351     -1605.1587      142.77765     -1462.381      -712.93465    
    981000   2301.475       201848.62      5880.7351     -1610.4149      148.447       -1461.9678     -721.08927    
    982000   2351.3204      201861.97      5880.7351     -1613.2088      151.66208     -1461.5467     -720.6191     
    983000   2152.4755      208027.19      5880.7351     -1599.9542      138.83642     -1461.1178     -697.56092    
    984000   2196.5338      208947.77      5880.7351     -1602.3712      141.67821     -1460.6929     -693.75714    
    985000   2297.8904      203486.98      5880.7351     -1608.4773      148.2158      -1460.2615     -713.3694     
    986000   2201.3824      207585.29      5880.7351     -1601.828       141.99096     -1459.8371     -697.9022     
    987000   2336.5328      203808.35      5880.7351     -1610.1188      150.70826     -1459.4105     -711.33883    
