ITEM: TIMESTEP
0
ITEM: NUMBER OF ATOMS
192
ITEM: BOX BOUNDS pp pp pp
0.0000000000000000e+00 2.4889500000000002e+01
0.0000000000000000e+00 2.4889500000000002e+01
0.0000000000000000e+00 1.2444699999999999e+01
ITEM: ATOMS id mol type x y z xu yu zu
37 13 1 1.85468 1.19804 1.20953 1.85468 1.19804 1.20953
38 13 2 2.36039 0.43353 0.933819 2.36039 0.43353 0.933819
39 13 2 1.78404 1.73614 0.421056 1.78404 1.73614 0.421056
55 19 1 4.27008 1.53354 4.57403 4.27008 1.53354 4.57403
56 19 2 5.00031 1.08421 4.9996 5.00031 1.08421 4.9996
57 19 2 4.68591 2.17498 3.99793 4.68591 2.17498 3.99793
67 23 1 0.868807 2.51519 3.26906 0.868807 2.51519 3.26906
68 23 2 1.26682 3.17134 3.84114 1.26682 3.17134 3.84114
69 23 2 1.6102 2.0976 2.83066 1.6102 2.0976 2.83066
79 27 1 5.31364 3.29844 3.02083 5.31364 3.29844 3.02083
80 27 2 4.56027 3.76814 2.66299 4.56027 3.76814 2.66299
81 27 2 5.70426 3.91085 3.64421 5.70426 3.91085 3.64421
151 51 1 1.72852 4.30271 5.18589 1.72852 4.30271 5.18589
152 51 2 2.34288 3.95512 5.83241 2.34288 3.95512 5.83241
153 51 2 1.90062 5.24423 5.17325 1.90062 5.24423 5.17325
156 52 2 3.78723 2.48472 6.12112 3.78723 2.48472 6.12112
163 55 1 3.34782 5.02136 2.51694 3.34782 5.02136 2.51694
164 55 2 2.9467 4.79347 1.67825 2.9467 4.79347 1.67825
165 55 2 2.9246 5.84166 2.77036 2.9246 5.84166 2.77036
10 4 1 11.6544 0.241512 0.681368 11.6544 0.241512 0.681368
11 4 2 10.7523 0.546401 0.584233 10.7523 0.546401 0.584233
12 4 2 12.1513 1.02892 0.903568 12.1513 1.02892 0.903568
19 7 1 11.5003 4.00568 6.0698 11.5003 4.00568 6.0698
20 7 2 12.3743 4.153 5.70832 12.3743 4.153 5.70832
21 7 2 10.9091 4.43384 5.45053 10.9091 4.43384 5.45053
28 10 1 6.29586 5.19634 4.8774 6.29586 5.19634 4.8774
29 10 2 6.91035 4.53521 5.19606 6.91035 4.53521 5.19606
30 10 2 6.85037 5.92597 4.601 6.85037 5.92597 4.601
43 15 1 8.91641 0.712913 4.32052 8.91641 0.712913 4.32052
44 15 2 9.85179 0.654305 4.12595 9.85179 0.654305 4.12595
45 15 2 8.49607 0.189803 3.63794 8.49607 0.189803 3.63794
49 17 1 7.76982 2.81185 5.58294 7.76982 2.81185 5.58294
51 17 2 8.14789 2.04025 5.16113 8.14789 2.04025 5.16113
76 26 1 12.1328 3.60993 1.29984 12.1328 3.60993 1.29984
78 26 2 11.4929 4.25574 1.59938 11.4929 4.25574 1.59938
91 31 1 9.36151 5.00678 1.65958 9.36151 5.00678 1.65958
92 31 2 8.56059 4.53988 1.42134 8.56059 4.53988 1.42134
93 31 2 9.20163 5.91098 1.3892 9.20163 5.91098 1.3892
109 37 1 9.63735 4.64063 4.4317 9.63735 4.64063 4.4317
110 37 2 9.46441 4.73509 3.49499 9.46441 4.73509 3.49499
111 37 2 9.08348 3.90951 4.70551 9.08348 3.90951 4.70551
120 40 2 8.26926 1.77489 0.215075 8.26926 1.77489 0.215075
124 42 1 11.8154 0.586647 4.61126 11.8154 0.586647 4.61126
126 42 2 12.2084 1.26357 4.06028 12.2084 1.26357 4.06028
190 64 1 7.50332 3.10279 1.09623 7.50332 3.10279 1.09623
191 64 2 6.99649 3.12892 1.90781 6.99649 3.12892 1.90781
192 64 2 6.8614 3.27273 0.406821 6.8614 3.27273 0.406821
26 9 2 6.22416 5.41633 10.5692 6.22416 5.41633 10.5692
85 29 1 5.44678 1.38252 9.99353 5.44678 1.38252 9.99353
86 29 2 4.78803 1.62626 9.34325 4.78803 1.62626 9.34325
87 29 2 6.06382 0.829422 9.51439 6.06382 0.829422 9.51439
97 33 1 3.91776 4.93403 9.00819 3.91776 4.93403 9.00819
98 33 2 4.08359 4.19152 8.42731 4.08359 4.19152 8.42731
99 33 2 4.78873 5.2396 9.26171 4.78873 5.2396 9.26171
100 34 1 1.9223 2.73621 11.3112 1.9223 2.73621 11.3112
101 34 2 2.47681 2.43 10.5936 2.47681 2.43 10.5936
102 34 2 2.31856 3.5636 11.5845 2.31856 3.5636 11.5845
103 35 1 5.6745 3.87836 11.7873 5.6745 3.87836 11.7873
104 35 2 5.47327 3.13266 11.2219 5.47327 3.13266 11.2219
105 35 2 4.83357 4.11817 12.1767 4.83357 4.11817 12.1767
149 50 2 4.11498 0.488479 11.6221 4.11498 0.488479 11.6221
154 52 1 3.48769 3.13911 6.75221 3.48769 3.13911 6.75221
155 52 2 3.25098 2.63255 7.52913 3.25098 2.63255 7.52913
160 54 1 1.4028 6.19165 8.66597 1.4028 6.19165 8.66597
161 54 2 2.16106 5.63179 8.49911 2.16106 5.63179 8.49911
166 56 1 0.263175 1.42132 9.36078 0.263175 1.42132 9.36078
169 57 1 3.19568 5.17837 11.8793 3.19568 5.17837 11.8793
170 57 2 3.11846 6.13245 11.8822 3.11846 6.13245 11.8822
171 57 2 3.41128 4.95781 10.9731 3.41128 4.95781 10.9731
172 58 1 2.75795 1.57377 8.91186 2.75795 1.57377 8.91186
173 58 2 2.88357 0.673803 8.61101 2.88357 0.673803 8.61101
174 58 2 1.80832 1.67461 8.97724 1.80832 1.67461 8.97724
176 59 2 0.324443 5.85616 12.2148 0.324443 5.85616 12.2148
4 2 1 8.71485 2.04122 8.2645 8.71485 2.04122 8.2645
5 2 2 8.7655 2.54168 9.07889 8.7655 2.54168 9.07889
6 2 2 9.60871 2.04885 7.92212 9.60871 2.04885 7.92212
25 9 1 6.2834 6.02265 9.83094 6.2834 6.02265 9.83094
27 9 2 7.2231 6.13657 9.68874 7.2231 6.13657 9.68874
34 12 1 11.1766 1.66852 7.2269 11.1766 1.66852 7.2269
35 12 2 11.2043 0.986839 6.5555 11.2043 0.986839 6.5555
36 12 2 11.4488 2.46518 6.77145 11.4488 2.46518 6.77145
50 17 2 7.92501 2.67471 6.51747 7.92501 2.67471 6.51747
70 24 1 8.63467 3.56609 10.3468 8.63467 3.56609 10.3468
71 24 2 9.49265 3.3266 10.6972 9.49265 3.3266 10.6972
72 24 2 8.75239 4.45431 10.01 8.75239 4.45431 10.01
82 28 1 11.2763 2.74257 11.5249 11.2763 2.74257 11.5249
83 28 2 11.5903 3.09542 12.3574 11.5903 3.09542 12.3574
84 28 2 10.5812 2.13182 11.77 10.5812 2.13182 11.77
118 40 1 9.04785 1.29526 12.3769 9.04785 1.29526 12.3769
119 40 2 8.73916 0.735223 11.6647 8.73916 0.735223 11.6647
187 63 1 11.1735 6.04708 8.16868 11.1735 6.04708 8.16868
189 63 2 11.3325 5.35683 7.52486 11.3325 5.35683 7.52486
31 11 1 4.61844 7.50409 6.12878 4.61844 7.50409 6.12878
32 11 2 5.0736 6.68371 5.93895 5.0736 6.68371 5.93895
40 14 1 1.9765 9.89417 2.0008 1.9765 9.89417 2.0008
41 14 2 2.40136 10.5258 2.58108 2.40136 10.5258 2.58108
42 14 2 2.08936 10.2604 1.12365 2.08936 10.2604 1.12365
54 18 2 0.997141 12.3835 6.1705 0.997141 12.3835 6.1705
61 21 1 5.27692 10.0951 4.74847 5.27692 10.0951 4.74847
62 21 2 4.3739 10.2309 4.46148 4.3739 10.2309 4.46148
63 21 2 5.25937 9.25486 5.20656 5.25937 9.25486 5.20656
96 32 2 5.74523 11.2525 6.08503 5.74523 11.2525 6.08503
112 38 1 1.95511 7.03187 6.08707 1.95511 7.03187 6.08707
114 38 2 2.88931 7.17013 6.24324 2.88931 7.17013 6.24324
121 41 1 5.94374 8.7586 1.18247 5.94374 8.7586 1.18247
123 41 2 5.79348 9.54496 1.70717 5.79348 9.54496 1.70717
133 45 1 1.30633 7.24235 2.33904 1.30633 7.24235 2.33904
134 45 2 1.74497 8.05332 2.08182 1.74497 8.05332 2.08182
135 45 2 0.80774 7.47702 3.12171 0.80774 7.47702 3.12171
177 59 2 0.592094 7.21276 0.386493 0.592094 7.21276 0.386493
179 60 2 4.20662 8.23477 -0.0247305 4.20662 8.23477 -0.0247305
181 61 1 2.91714 11.4631 4.04013 2.91714 11.4631 4.04013
182 61 2 2.25007 11.3449 4.71636 2.25007 11.3449 4.71636
183 61 2 3.21949 12.3638 4.15612 3.21949 12.3638 4.15612
46 16 1 8.7037 7.45956 0.971602 8.7037 7.45956 0.971602
47 16 2 8.823 8.04595 1.71869 8.823 8.04595 1.71869
48 16 2 9.39553 7.7081 0.35855 9.39553 7.7081 0.35855
58 20 1 9.42373 9.26159 3.11204 9.42373 9.26159 3.11204
59 20 2 10.0437 9.99065 3.13045 10.0437 9.99065 3.13045
60 20 2 9.68912 8.70239 3.84218 9.68912 8.70239 3.84218
64 22 1 7.27633 11.0458 3.26168 7.27633 11.0458 3.26168
65 22 2 6.52593 10.7886 3.7974 6.52593 10.7886 3.7974
66 22 2 7.85775 10.2857 3.28239 7.85775 10.2857 3.28239
73 25 1 9.63064 7.29489 5.18398 9.63064 7.29489 5.18398
74 25 2 9.21788 7.50491 6.02169 9.21788 7.50491 6.02169
75 25 2 9.58288 6.34067 5.12546 9.58288 6.34067 5.12546
90 30 2 11.8355 9.47792 6.03895 11.8355 9.47792 6.03895
108 36 2 9.061 11.7967 5.78421 9.061 11.7967 5.78421
122 41 2 6.62417 8.28034 1.65631 6.62417 8.28034 1.65631
127 43 1 6.24326 11.6167 0.909578 6.24326 11.6167 0.909578
128 43 2 6.51447 11.5856 1.82703 6.51447 11.5856 1.82703
129 43 2 6.98338 11.2473 0.427896 6.98338 11.2473 0.427896
142 48 1 11.7728 11.0815 2.74192 11.7728 11.0815 2.74192
143 48 2 11.7445 11.7224 2.03153 11.7445 11.7224 2.03153
157 53 1 12.3759 8.21093 4.7678 12.3759 8.21093 4.7678
158 53 2 11.6278 7.81673 5.2163 11.6278 7.81673 5.2163
15 5 2 6.21799 8.63947 11.8546 6.21799 8.63947 11.8546
16 6 1 2.22828 10.177 11.4599 2.22828 10.177 11.4599
17 6 2 1.44277 10.6609 11.2047 1.44277 10.6609 11.2047
18 6 2 2.9358 10.8189 11.3992 2.9358 10.8189 11.3992
33 11 2 4.94947 7.76921 6.9869 4.94947 7.76921 6.9869
52 18 1 1.37297 11.5159 6.31983 1.37297 11.5159 6.31983
53 18 2 0.621672 10.9623 6.53273 0.621672 10.9623 6.53273
94 32 1 5.81154 12.1519 6.40585 5.81154 12.1519 6.40585
113 38 2 1.59126 6.85009 6.95356 1.59126 6.85009 6.95356
115 39 1 3.77633 11.4602 8.04623 3.77633 11.4602 8.04623
116 39 2 4.36621 11.7764 7.36191 4.36621 11.7764 7.36191
117 39 2 2.96935 11.2362 7.58276 2.96935 11.2362 7.58276
130 44 1 5.50902 9.05131 8.47442 5.50902 9.05131 8.47442
131 44 2 5.62433 8.87673 9.40847 5.62433 8.87673 9.40847
132 44 2 5.37991 9.99828 8.42142 5.37991 9.99828 8.42142
136 46 1 0.0250618 11.6482 10.7778 0.0250618 11.6482 10.7778
137 46 2 0.320793 12.2984 10.1406 0.320793 12.2984 10.1406
162 54 2 1.53108 6.50928 9.55978 1.53108 6.50928 9.55978
175 59 1 0.375823 6.78781 12.0012 0.375823 6.78781 12.0012
178 60 1 3.49763 7.7449 12.0033 3.49763 7.7449 12.0033
180 60 2 2.87769 8.41603 11.7178 2.87769 8.41603 11.7178
1 1 1 7.41476 12.2369 8.72149 7.41476 12.2369 8.72149
2 1 2 7.86203 11.8643 9.48129 7.86203 11.8643 9.48129
7 3 1 10.505 8.07567 11.3742 10.505 8.07567 11.3742
8 3 2 11.3404 7.61803 11.4688 11.3404 7.61803 11.4688
9 3 2 10.7071 8.83285 10.8246 10.7071 8.83285 10.8246
13 5 1 6.26323 8.62904 10.8985 6.26323 8.62904 10.8985
14 5 2 6.40934 7.7098 10.6752 6.40934 7.7098 10.6752
22 8 1 10.6321 10.1917 9.94396 10.6321 10.1917 9.94396
23 8 2 11.4218 10.7023 10.1223 11.4218 10.7023 10.1223
24 8 2 10.8053 9.76742 9.10359 10.8053 9.76742 9.10359
88 30 1 11.8064 10.0557 6.80151 11.8064 10.0557 6.80151
89 30 2 10.9566 10.492 6.73966 10.9566 10.492 6.73966
95 32 2 6.33863 12.0844 7.20201 6.33863 12.0844 7.20201
106 36 1 9.34097 11.242 6.51238 9.34097 11.242 6.51238
107 36 2 8.61035 11.2701 7.13015 8.61035 11.2701 7.13015
139 47 1 8.09679 10.7078 11.2721 8.09679 10.7078 11.2721
140 47 2 7.48983 10.0075 11.0323 7.48983 10.0075 11.0323
141 47 2 8.88672 10.5254 10.7632 8.88672 10.5254 10.7632
145 49 1 7.97755 8.25637 7.27535 7.97755 8.25637 7.27535
146 49 2 7.08961 8.58544 7.41506 7.08961 8.58544 7.41506
147 49 2 8.1694 7.74285 8.06004 8.1694 7.74285 8.06004
184 62 1 9.00516 6.66169 9.5167 9.00516 6.66169 9.5167
185 62 2 9.80995 6.51029 9.02111 9.80995 6.51029 9.02111
186 62 2 9.30503 6.93187 10.3846 9.30503 6.93187 10.3846
188 63 2 12.0427 6.26804 8.50323 12.0427 6.26804 8.50323
3 1 2 7.93213 13.0093 8.49344 7.93213 13.0093 8.49344
150 50 2 4.66949 24.5636 0.326825 4.66949 24.5636 0.326825
125 42 2 11.7774 24.7019 4.04978 11.7774 24.7019 4.04978
148 50 1 3.85404 24.7721 12.3157 3.85404 24.7721 12.3157
77 26 2 12.5988 3.34768 2.09378 12.5988 3.34768 2.09378
167 56 2 24.8159 2.01109 10.0353 24.8159 2.01109 10.0353
168 56 2 24.6366 1.62833 8.58164 24.6366 1.62833 8.58164
144 48 2 12.4671 10.4732 2.48875 12.4671 10.4732 2.48875
159 53 2 13.138 7.7581 5.12885 13.138 7.7581 5.12885
138 46 2 24.6488 12.1627 11.54 24.6488 12.1627 11.54
ITEM: TIMESTEP
2000
ITEM: NUMBER OF ATOMS
192
ITEM: BOX BOUNDS pp pp pp
0.0000000000000000e+00 2.4889500000000002e+01
0.0000000000000000e+00 2.4889500000000002e+01
0.0000000000000000e+00 1.2444699999999999e+01
ITEM: ATOMS id mol type x y z xu yu zu
37 13 1 1.83923 4.25699 1.49151 1.83923 4.25699 1.49151
38 13 2 1.89792 3.32424 1.28469 1.89792 3.32424 1.28469
39 13 2 1.44103 4.65038 0.715034 1.44103 4.65038 0.715034
55 19 1 3.93802 3.57912 3.79178 3.93802 3.57912 3.79178
56 19 2 4.40605 2.82503 3.43327 4.40605 2.82503 3.43327
57 19 2 3.97656 4.23749 3.09802 3.97656 4.23749 3.09802
179 60 2 4.4543 5.33709 11.0333 4.4543 5.33709 -1.41138
79 27 1 5.54609 5.71368 12.4352 5.54609 5.71368 -0.00946622
80 27 2 4.9876 5.96019 0.727797 4.9876 5.96019 0.727797
93 31 2 6.04243 5.48669 2.66371 6.04243 5.48669 2.66371
152 51 2 1.8829 1.61523 5.42053 1.8829 1.61523 5.42053
71 24 2 10.0659 4.12322 10.3314 10.0659 4.12322 10.3314
78 26 2 8.75627 5.81361 2.89282 8.75627 5.81361 2.89282
163 55 1 3.99843 5.78123 2.30341 3.99843 5.78123 2.30341
164 55 2 3.16086 5.46272 1.96687 3.16086 5.46272 1.96687
68 23 2 0.262888 3.8509 6.00204 0.262888 3.8509 6.00204
29 10 2 5.1688 4.30955 4.77759 5.1688 4.30955 4.77759
191 64 2 5.74807 4.11606 12.2632 5.74807 4.11606 -0.181549
76 26 1 9.6335 6.09771 3.14968 9.6335 6.09771 3.14968
119 40 2 4.74131 0.879298 2.50038 4.74131 0.879298 14.9451
118 40 1 5.45963 1.46069 2.74986 5.45963 1.46069 15.1946
12 4 2 7.75798 2.99034 0.48436 7.75798 2.99034 0.48436
11 4 2 8.18127 1.53682 0.484474 8.18127 1.53682 0.484474
151 51 1 1.46946 2.47727 5.37369 1.46946 2.47727 5.37369
83 28 2 10.2339 3.31406 12.2078 10.2339 3.31406 12.2078
84 28 2 9.92167 4.79539 12.2013 9.92167 4.79539 12.2013
43 15 1 8.00274 2.20261 3.29429 8.00274 2.20261 3.29429
44 15 2 8.32027 2.34431 2.40247 8.32027 2.34431 2.40247
45 15 2 7.05647 2.09528 3.1979 7.05647 2.09528 3.1979
51 17 2 8.22434 2.86278 4.87255 8.22434 2.86278 4.87255
14 5 2 6.24459 5.82797 9.14693 6.24459 5.82797 9.14693
161 54 2 2.29133 5.69132 6.85374 2.29133 5.69132 6.85374
91 31 1 6.9153 5.38538 3.04327 6.9153 5.38538 3.04327
92 31 2 6.75798 5.2762 3.98112 6.75798 5.2762 3.98112
110 37 2 9.45708 5.99081 4.87841 9.45708 5.99081 4.87841
109 37 1 9.25115 6.01836 5.8128 9.25115 6.01836 5.8128
86 29 2 5.90984 0.822555 6.88976 5.90984 0.822555 6.88976
111 37 2 8.7432 5.22246 5.97016 8.7432 5.22246 5.97016
120 40 2 5.59589 2.01666 1.98268 5.59589 2.01666 1.98268
124 42 1 10.5053 3.38012 3.47874 10.5053 3.38012 3.47874
126 42 2 9.68891 2.99739 3.15741 9.68891 2.99739 3.15741
190 64 1 5.77671 3.17457 -0.0112265 5.77671 3.17457 -0.0112265
10 4 1 8.49875 2.41769 0.68327 8.49875 2.41769 0.68327
125 42 2 10.5423 4.24476 3.06977 10.5423 29.1343 3.06977
20 7 2 10.6709 5.51859 6.97839 10.6709 5.51859 6.97839
82 28 1 10.5962 4.16289 11.9539 10.5962 4.16289 11.9539
35 12 2 11.0521 2.60489 5.02044 11.0521 2.60489 5.02044
178 60 1 3.68597 5.3597 10.4629 3.68597 5.3597 10.4629
46 16 1 8.87063 5.99227 0.443036 8.87063 5.99227 0.443036
28 10 1 5.61213 4.77714 5.48543 5.61213 4.77714 5.48543
97 33 1 3.27467 3.91949 6.8215 3.27467 3.91949 6.8215
98 33 2 2.75085 3.37786 6.23117 2.75085 3.37786 6.23117
100 34 1 2.49193 0.861443 10.7586 2.49193 0.861443 10.7586
101 34 2 1.64082 0.428372 10.693 1.64082 0.428372 10.693
102 34 2 2.41069 1.63581 10.2018 2.41069 1.63581 10.2018
105 35 2 5.01111 2.03942 9.88861 5.01111 2.03942 9.88861
180 60 2 2.96042 5.58214 11.0463 2.96042 5.58214 11.0463
162 54 2 0.863212 5.91423 6.40352 0.863212 5.91423 6.40352
169 57 1 3.51062 2.87652 9.34199 3.51062 2.87652 9.34199
170 57 2 3.51584 3.70554 9.82047 3.51584 3.70554 9.82047
171 57 2 3.24656 3.1141 8.45314 3.24656 3.1141 8.45314
21 7 2 11.5489 4.28527 6.98208 11.5489 4.28527 6.98208
27 9 2 7.98472 4.30675 9.05467 7.98472 4.30675 9.05467
150 50 2 4.08147 2.37549 0.451106 4.08147 27.265 0.451106
99 33 2 3.97614 4.26614 6.27013 3.97614 4.26614 6.27013
149 50 2 3.0015 1.47359 12.3371 3.0015 1.47359 12.3371
148 50 1 3.35603 1.80977 0.715536 3.35603 26.6993 13.1602
72 24 2 10.4998 4.32432 8.895 10.4998 4.32432 8.895
70 24 1 9.918 3.79799 9.44334 9.918 3.79799 9.44334
19 7 1 11.326 5.05734 7.50216 11.326 5.05734 7.50216
25 9 1 7.06561 4.18366 8.81734 7.06561 4.18366 8.81734
30 10 2 6.24668 4.14782 5.82825 6.24668 4.14782 5.82825
49 17 1 8.13063 3.35969 5.68529 8.13063 3.35969 5.68529
192 64 2 5.8637 2.77653 11.5673 5.8637 2.77653 -0.877384
26 9 2 6.82557 3.34601 9.21351 6.82557 3.34601 9.21351
85 29 1 6.41664 0.699111 7.69234 6.41664 0.699111 7.69234
153 51 2 1.90171 2.91109 4.63804 1.90171 2.91109 4.63804
87 29 2 7.3092 0.532512 7.38933 7.3092 0.532512 7.38933
103 35 1 5.95525 1.90913 9.97731 5.95525 1.90913 9.97731
104 35 2 6.17851 1.29047 9.28186 6.17851 1.29047 9.28186
4 2 1 9.48999 1.85598 7.4783 9.48999 1.85598 7.4783
5 2 2 9.60191 2.52285 8.15579 9.60191 2.52285 8.15579
6 2 2 10.2351 1.98306 6.89105 10.2351 1.98306 6.89105
34 12 1 11.6047 2.37366 5.76703 11.6047 2.37366 5.76703
50 17 2 8.56854 2.82344 6.34628 8.56854 2.82344 6.34628
47 16 2 9.37885 6.3446 1.17366 9.37885 6.3446 1.17366
31 11 1 5.53128 7.5705 5.51547 5.53128 7.5705 5.51547
32 11 2 5.53777 6.63827 5.73259 5.53777 6.63827 5.73259
40 14 1 1.86064 9.84664 1.12925 1.86064 9.84664 1.12925
41 14 2 2.05998 10.1938 1.99872 2.05998 10.1938 1.99872
42 14 2 2.68187 9.92801 0.644282 2.68187 9.92801 0.644282
61 21 1 5.42514 10.2184 4.28834 5.42514 10.2184 4.28834
62 21 2 4.51871 10.1596 3.98641 4.51871 10.1596 3.98641
63 21 2 5.69926 9.30849 4.40333 5.69926 9.30849 4.40333
96 32 2 5.49752 11.424 5.83131 5.49752 11.424 5.83131
112 38 1 3.1402 7.45736 4.2085 3.1402 7.45736 4.2085
114 38 2 3.93476 7.53832 4.73609 3.93476 7.53832 4.73609
121 41 1 7.32646 7.82212 11.3256 7.32646 7.82212 -1.11906
123 41 2 7.15372 8.75644 11.4416 7.15372 8.75644 -1.00314
133 45 1 0.237747 7.64291 1.47028 0.237747 7.64291 1.47028
134 45 2 0.76501 8.44166 1.48523 0.76501 8.44166 1.48523
95 32 2 6.05867 12.5144 6.71899 6.05867 12.5144 6.71899
141 47 2 9.2994 11.5012 9.98666 9.2994 11.5012 9.98666
189 63 2 12.1098 6.41821 8.71644 12.1098 6.41821 8.71644
181 61 1 2.84899 10.1688 3.83846 2.84899 10.1688 3.83846
182 61 2 2.60567 9.25155 3.96374 2.60567 9.25155 3.96374
33 11 2 5.52021 8.01435 6.36347 5.52021 8.01435 6.36347
113 38 2 2.51571 7.01287 4.78181 2.51571 7.01287 4.78181
145 49 1 8.10812 9.11304 8.63722 8.10812 9.11304 8.63722
175 59 1 1.54313 6.24836 11.8666 1.54313 6.24836 11.8666
81 27 2 6.1576 6.44424 12.3426 6.1576 6.44424 -0.102084
48 16 2 8.73148 6.74168 -0.13598 8.73148 6.74168 -0.13598
58 20 1 10.7211 10.6296 4.94412 10.7211 10.6296 4.94412
59 20 2 11.6006 10.8329 5.26225 11.6006 10.8329 5.26225
60 20 2 10.463 9.849 5.43435 10.463 9.849 5.43435
64 22 1 7.36785 10.2047 2.00299 7.36785 10.2047 2.00299
65 22 2 6.68969 10.3338 2.66607 6.68969 10.3338 2.66607
66 22 2 7.97951 9.58625 2.40255 7.97951 9.58625 2.40255
108 36 2 10.1872 12.0748 6.06124 10.1872 12.0748 6.06124
128 43 2 6.89009 10.3795 0.309897 6.89009 10.3795 0.309897
159 53 2 11.7828 10.077 8.42525 11.7828 10.077 8.42525
7 3 1 9.63938 8.85838 2.92595 9.63938 8.85838 15.3706
8 3 2 10.1842 9.53297 3.33131 10.1842 9.53297 15.776
9 3 2 9.96237 8.79719 2.02697 9.96237 8.79719 14.4717
147 49 2 8.21816 8.40281 9.26943 8.21816 8.40281 9.26943
106 36 1 10.129 12.5249 6.90397 10.129 12.5249 6.90397
54 18 2 1.20163 8.84865 8.1399 1.20163 8.84865 8.1399
176 59 2 1.50777 6.91049 11.1762 1.50777 6.91049 11.1762
122 41 2 6.78719 7.56952 10.5762 6.78719 7.56952 -1.86847
127 43 1 6.63405 10.3726 11.8323 6.63405 10.3726 -0.612396
137 46 2 2.10655 8.92081 10.4351 2.10655 8.92081 10.4351
89 30 2 11.1574 12.1871 8.43996 11.1574 12.1871 8.43996
16 6 1 4.12137 9.60131 10.9358 4.12137 9.60131 10.9358
17 6 2 3.81738 9.99711 10.119 3.81738 9.99711 10.119
18 6 2 4.90662 10.0981 11.1656 4.90662 10.0981 11.1656
52 18 1 1.64567 8.96466 7.2999 1.64567 8.96466 7.2999
53 18 2 1.75474 8.076 6.96135 1.75474 8.076 6.96135
157 53 1 12.1943 9.28539 8.07861 12.1943 9.28539 8.07861
115 39 1 3.63718 10.5805 8.22221 3.63718 10.5805 8.22221
116 39 2 3.95897 11.1332 7.51008 3.95897 11.1332 7.51008
117 39 2 2.88832 10.1173 7.84685 2.88832 10.1173 7.84685
130 44 1 5.50643 8.90764 7.91115 5.50643 8.90764 7.91115
131 44 2 5.31107 8.36472 8.67489 5.31107 8.36472 8.67489
132 44 2 4.87196 9.62291 7.95653 4.87196 9.62291 7.95653
136 46 1 1.21961 8.56519 10.3795 1.21961 8.56519 10.3795
183 61 2 2.35239 10.6421 4.50597 2.35239 10.6421 4.50597
138 46 2 0.743325 8.9961 11.0892 25.6328 8.9961 11.0892
94 32 1 5.25698 12.024 6.53724 5.25698 12.024 6.53724
13 5 1 5.79828 6.65661 9.32127 5.79828 6.65661 9.32127
184 62 1 12.2558 7.24335 12.1789 12.2558 7.24335 12.1789
73 25 1 9.88626 8.46769 6.76604 9.88626 8.46769 6.76604
74 25 2 9.12581 8.61775 7.32767 9.12581 8.61775 7.32767
75 25 2 9.75663 7.58582 6.41713 9.75663 7.58582 6.41713
139 47 1 8.36896 11.3527 9.81792 8.36896 11.3527 9.81792
129 43 2 7.37086 10.7785 11.3756 7.37086 10.7785 -1.06908
177 59 2 1.19389 6.68992 0.196027 1.19389 6.68992 0.196027
158 53 2 11.5405 8.91489 7.48578 11.5405 8.91489 7.48578
146 49 2 7.16347 9.15873 8.48963 7.16347 9.15873 8.48963
140 47 2 8.33146 10.4767 9.43411 8.33146 10.4767 9.43411
77 26 2 9.5674 7.05032 3.2161 9.5674 7.05032 3.2161
165 55 2 3.76913 6.2709 3.09326 3.76913 6.2709 3.09326
22 8 1 10.2733 9.01317 0.27396 10.2733 9.01317 12.7187
23 8 2 10.6849 9.87219 0.368389 10.6849 9.87219 12.8131
24 8 2 10.9826 8.43728 -0.0115041 10.9826 8.43728 12.4332
88 30 1 11.5229 11.8782 9.26892 11.5229 11.8782 9.26892
186 62 2 12.1916 6.32056 12.425 12.1916 6.32056 12.425
160 54 1 1.71021 6.35358 6.47963 1.71021 6.35358 6.47963
2 1 2 7.97666 12.3264 8.58566 7.97666 12.3264 8.58566
15 5 2 4.99523 6.40531 9.77756 4.99523 6.40531 9.77756
3 1 2 7.49677 13.7549 8.44139 7.49677 13.7549 8.44139
1 1 1 7.6872 12.9656 7.93459 7.6872 12.9656 7.93459
107 36 2 9.1988 12.7272 7.00425 9.1988 12.7272 7.00425
90 30 2 11.4722 12.6364 9.85094 11.4722 12.6364 9.85094
173 58 2 4.78104 24.1953 9.2254 4.78104 -0.694172 9.2254
172 58 1 3.86877 23.9721 9.04051 3.86877 -0.91736 9.04051
155 52 2 3.13174 24.5061 7.28159 3.13174 -0.383419 7.28159
174 58 2 3.36184 24.514 9.64518 3.36184 -0.37548 9.64518
166 56 1 0.158484 24.4544 9.881 0.158484 -0.435107 9.881
156 52 2 3.09494 23.969 5.86662 3.09494 -0.920465 5.86662
154 52 1 3.00757 24.7772 6.37203 3.00757 -0.112279 6.37203
67 23 1 24.6653 4.44708 6.57083 -0.224228 4.44708 6.57083
69 23 2 24.0272 3.88806 7.01418 -0.86232 3.88806 7.01418
36 12 2 12.4932 2.35553 5.41144 12.4932 2.35553 5.41144
168 56 2 25.1743 0.024102 9.0507 25.1743 0.024102 9.0507
143 48 2 14.0585 11.1375 6.13121 14.0585 11.1375 6.13121
144 48 2 12.9511 10.3054 6.74211 12.9511 10.3054 6.74211
142 48 1 13.1488 10.872 5.99637 13.1488 10.872 5.99637
188 63 2 12.4267 7.89396 8.83333 12.4267 7.89396 8.83333
187 63 1 12.4502 7.0734 9.32562 12.4502 7.0734 9.32562
185 62 2 12.3386 7.2322 11.2254 12.3386 7.2322 11.2254
135 45 2 24.4699 7.77644 2.15316 -0.419581 7.77644 2.15316
167 56 2 24.2438 23.9504 9.75658 24.2438 -0.939148 9.75658
ITEM: TIMESTEP
4000
ITEM: NUMBER OF ATOMS
192
ITEM: BOX BOUNDS pp pp pp
0.0000000000000000e+00 2.4889500000000002e+01
0.0000000000000000e+00 2.4889500000000002e+01
0.0000000000000000e+00 1.2444699999999999e+01
ITEM: ATOMS id mol type x y z xu yu zu
37 13 1 0.88055 3.90932 2.34547 0.88055 3.90932 2.34547
38 13 2 1.05842 3.1901 1.7394 1.05842 3.1901 1.7394
39 13 2 0.723915 4.66601 1.78058 0.723915 4.66601 1.78058
55 19 1 2.62923 1.54179 5.37084 2.62923 1.54179 5.37084
56 19 2 3.3366 0.998763 5.023 3.3366 0.998763 5.023
57 19 2 2.74594 2.39043 4.94374 2.74594 2.39043 4.94374
80 27 2 3.48519 5.97217 1.31347 3.48519 5.97217 1.31347
163 55 1 2.91176 3.85983 4.04693 2.91176 3.85983 4.04693
164 55 2 2.15993 3.89176 3.45535 2.15993 3.89176 3.45535
44 15 2 7.95375 0.171502 4.30616 7.95375 0.171502 4.30616
29 10 2 4.07111 2.43945 6.29509 4.07111 2.43945 6.29509
191 64 2 5.80949 3.72415 1.09329 5.80949 3.72415 1.09329
79 27 1 4.34188 5.66368 1.01828 4.34188 5.66368 1.01828
150 50 2 5.42437 1.79304 1.54424 5.42437 26.6825 1.54424
148 50 1 4.77378 1.24578 1.98409 4.77378 26.1353 14.4288
153 51 2 0.849676 2.20899 6.52906 0.849676 2.20899 6.52906
86 29 2 8.17935 0.063591 6.49403 8.17935 0.063591 6.49403
162 54 2 1.28546 6.16883 5.7956 1.28546 6.16883 5.7956
69 23 2 0.211009 5.08933 3.98955 0.211009 5.08933 3.98955
179 60 2 3.74292 4.78274 12.0856 3.74292 4.78274 -0.359078
190 64 1 6.49215 3.05649 1.0267 6.49215 3.05649 1.0267
119 40 2 4.68429 0.587969 3.57438 4.68429 0.587969 16.0191
149 50 2 3.95563 1.42672 1.52134 3.95563 1.42672 13.966
192 64 2 6.72937 3.04746 0.0994032 6.72937 3.04746 0.0994032
165 55 2 3.37297 4.68446 3.89359 3.37297 4.68446 3.89359
32 11 2 6.84791 4.52207 5.68098 6.84791 4.52207 5.68098
12 4 2 9.11991 4.98357 1.02259 9.11991 4.98357 1.02259
11 4 2 8.28592 3.79368 1.44747 8.28592 3.79368 1.44747
43 15 1 7.49335 0.685655 4.96941 7.49335 0.685655 4.96941
118 40 1 4.80436 0.218888 4.44936 4.80436 0.218888 16.8941
33 11 2 6.45972 5.62639 6.64103 6.45972 5.62639 6.64103
51 17 2 8.07679 2.74387 4.96205 8.07679 2.74387 4.96205
111 37 2 9.83055 5.53467 4.15064 9.83055 5.53467 4.15064
124 42 1 10.8703 3.34218 3.74875 10.8703 3.34218 3.74875
126 42 2 10.4935 3.31712 2.86916 10.4935 3.31712 2.86916
10 4 1 8.89987 4.44652 1.78377 8.89987 4.44652 1.78377
125 42 2 10.1137 3.31853 4.33463 10.1137 28.208 4.33463
35 12 2 11.9478 2.85778 5.16671 11.9478 2.85778 5.16671
49 17 1 8.44448 3.5111 5.40067 8.44448 3.5111 5.40067
34 12 1 12.2121 2.77109 6.08259 12.2121 2.77109 6.08259
50 17 2 8.8006 3.17067 6.22135 8.8006 3.17067 6.22135
175 59 1 1.26311 5.82692 0.424576 1.26311 5.82692 12.8693
15 5 2 4.84074 4.86587 10.5693 4.84074 4.86587 10.5693
152 51 2 0.486219 1.88673 7.96291 0.486219 1.88673 7.96291
155 52 2 1.75 0.829367 9.09115 1.75 0.829367 9.09115
151 51 1 0.577678 2.61713 7.35105 0.577678 2.61713 7.35105
28 10 1 4.81687 2.69895 6.83615 4.81687 2.69895 6.83615
99 33 2 3.43548 3.76629 8.12122 3.43548 3.76629 8.12122
45 15 2 6.56828 0.602703 4.73792 6.56828 0.602703 4.73792
13 5 1 5.66453 5.06685 10.1252 5.66453 5.06685 10.1252
172 58 1 3.44194 1.12705 9.65967 3.44194 1.12705 9.65967
30 10 2 5.20959 3.43477 6.3665 5.20959 3.43477 6.3665
161 54 2 2.45581 5.67701 6.6204 2.45581 5.67701 6.6204
173 58 2 4.3451 1.01126 9.3645 4.3451 1.01126 9.3645
178 60 1 3.51507 4.22623 11.3409 3.51507 4.22623 11.3409
97 33 1 2.67016 4.33234 8.02065 2.67016 4.33234 8.02065
98 33 2 1.94384 3.72855 7.86529 1.94384 3.72855 7.86529
100 34 1 2.50142 2.00889 0.140809 2.50142 2.00889 12.5855
101 34 2 1.86512 1.72283 11.9301 1.86512 1.72283 11.9301
102 34 2 2.82451 2.8476 12.2562 2.82451 2.8476 12.2562
105 35 2 5.9126 1.38656 7.95967 5.9126 1.38656 7.95967
174 58 2 3.51394 1.26481 10.6042 3.51394 1.26481 10.6042
169 57 1 1.56938 5.63701 10.1751 1.56938 5.63701 10.1751
176 59 2 1.24291 5.60803 11.9377 1.24291 5.60803 11.9377
171 57 2 1.82206 5.21911 9.35183 1.82206 5.21911 9.35183
103 35 1 6.157 0.927423 8.76322 6.157 0.927423 8.76322
14 5 2 6.18648 4.26955 10.2153 6.18648 4.26955 10.2153
131 44 2 6.3252 6.12533 8.71611 6.3252 6.12533 8.71611
180 60 2 2.86831 4.73399 10.8509 2.86831 4.73399 10.8509
154 52 1 0.857024 0.502138 8.98279 0.857024 0.502138 8.98279
20 7 2 10.8677 5.80275 6.43383 10.8677 5.80275 6.43383
71 24 2 9.95918 4.26755 9.69403 9.95918 4.26755 9.69403
83 28 2 11.6031 5.90597 10.0602 11.6031 5.90597 10.0602
84 28 2 11.5649 5.28223 11.4391 11.5649 5.28223 11.4391
82 28 1 11.785 5.09061 10.5274 11.785 5.09061 10.5274
21 7 2 11.151 4.46264 7.07862 11.151 4.46264 7.07862
27 9 2 7.80433 3.33646 9.96172 7.80433 3.33646 9.96172
72 24 2 9.13505 4.57379 8.46158 9.13505 4.57379 8.46158
70 24 1 9.14151 4.03611 9.25347 9.14151 4.03611 9.25347
19 7 1 10.8978 5.36276 7.28338 10.8978 5.36276 7.28338
25 9 1 7.15756 2.85043 10.4733 7.15756 2.85043 10.4733
26 9 2 6.77816 2.22883 9.85208 6.77816 2.22883 9.85208
114 38 2 5.08357 5.81053 4.96079 5.08357 5.81053 4.96079
87 29 2 9.32333 0.497742 7.38549 9.32333 0.497742 7.38549
104 35 2 7.01146 0.542147 8.56907 7.01146 0.542147 8.56907
4 2 1 9.94166 2.16968 7.43074 9.94166 2.16968 7.43074
5 2 2 9.82441 2.81884 8.12433 9.82441 2.81884 8.12433
6 2 2 10.8619 2.25015 7.17978 10.8619 2.25015 7.17978
31 11 1 6.09067 5.002 6.01638 6.09067 5.002 6.01638
109 37 1 10.1189 6.25713 4.70844 10.1189 6.25713 4.70844
40 14 1 3.85322 10.0663 0.207936 3.85322 10.0663 0.207936
41 14 2 4.33127 9.42317 0.731481 4.33127 9.42317 0.731481
42 14 2 4.07072 9.84751 11.7465 4.07072 9.84751 -0.698188
96 32 2 6.27791 10.2216 4.69058 6.27791 10.2216 4.69058
133 45 1 1.49929 8.51132 0.515371 1.49929 8.51132 0.515371
144 48 2 12.3011 11.6913 5.64741 12.3011 11.6913 5.64741
177 59 2 1.28777 6.78357 0.445847 1.28777 6.78357 0.445847
134 45 2 2.24249 9.11253 0.564806 2.24249 9.11253 0.564806
181 61 1 5.02013 8.27377 2.60275 5.02013 8.27377 2.60275
182 61 2 4.93098 7.43444 3.05422 4.93098 7.43444 3.05422
160 54 1 2.16148 6.41772 6.09034 2.16148 6.41772 6.09034
183 61 2 5.07842 8.91986 3.3066 5.07842 8.91986 3.3066
187 63 1 11.4261 7.58277 8.59023 11.4261 7.58277 8.59023
93 31 2 6.97386 7.58595 2.36204 6.97386 7.58595 2.36204
147 49 2 8.8313 8.82625 8.82479 8.8313 8.82625 8.82479
157 53 1 11.3091 9.66179 6.82259 11.3091 9.66179 6.82259
91 31 1 7.7071 7.15955 2.80562 7.7071 7.15955 2.80562
61 21 1 7.73936 10.8948 4.21864 7.73936 10.8948 4.21864
62 21 2 7.44153 10.8611 3.30958 7.44153 10.8611 3.30958
63 21 2 8.21367 10.0732 4.34639 8.21367 10.0732 4.34639
81 27 2 4.859 6.46146 0.907123 4.859 6.46146 0.907123
122 41 2 6.2132 6.43471 11.3052 6.2132 6.43471 -1.13952
127 43 1 7.03638 9.39828 11.8124 7.03638 9.39828 -0.632255
64 22 1 7.51667 11.1693 1.61981 7.51667 11.1693 1.61981
65 22 2 7.51425 12.1198 1.50637 7.51425 12.1198 1.50637
66 22 2 8.43641 10.9194 1.5312 8.43641 10.9194 1.5312
128 43 2 6.75126 10.0533 0.00483256 6.75126 10.0533 0.00483256
7 3 1 10.1681 10.6885 1.53679 10.1681 10.6885 13.9815
8 3 2 10.1089 11.2337 2.32128 10.1089 11.2337 14.766
9 3 2 10.5031 11.2769 0.860246 10.5031 11.2769 13.3049
77 26 2 10.2464 8.76967 1.80802 10.2464 8.76967 1.80802
47 16 2 9.80167 7.12912 0.336017 9.80167 7.12912 0.336017
74 25 2 8.89764 8.85262 6.2626 8.89764 8.85262 6.2626
76 26 1 10.1167 7.82498 1.72449 10.1167 7.82498 1.72449
75 25 2 8.96241 7.97983 5.02731 8.96241 7.97983 5.02731
78 26 2 9.24214 7.67034 2.0814 9.24214 7.67034 2.0814
73 25 1 9.10278 8.87768 5.32798 9.10278 8.87768 5.32798
92 31 2 7.8232 6.333 2.33704 7.8232 6.333 2.33704
113 38 2 3.64045 6.24501 5.10402 3.64045 6.24501 5.10402
112 38 1 4.339 6.14072 4.45798 4.339 6.14072 4.45798
186 62 2 10.0274 7.98128 11.0988 10.0274 7.98128 11.0988
23 8 2 10.7 11.7127 10.2677 10.7 11.7127 10.2677
3 1 2 5.05097 12.0031 7.90035 5.05097 12.0031 7.90035
54 18 2 1.93834 8.91495 8.07081 1.93834 8.91495 8.07081
137 46 2 3.33444 8.52222 10.0785 3.33444 8.52222 10.0785
16 6 1 4.86128 9.24528 10.1351 4.86128 9.24528 10.1351
17 6 2 5.14219 9.37809 9.22969 5.14219 9.37809 9.22969