ITEM: TIMESTEP
0
ITEM: NUMBER OF ATOMS
192
ITEM: BOX BOUNDS pp pp pp
0.0000000000000000e+00 2.4889500000000002e+01
0.0000000000000000e+00 2.4889500000000002e+01
0.0000000000000000e+00 1.2444699999999999e+01
ITEM: ATOMS id mol type x y z xu yu zu
37 13 1 1.85468 1.19804 1.20953 1.85468 1.19804 1.20953
38 13 2 2.36039 0.43353 0.933819 2.36039 0.43353 0.933819
39 13 2 1.78404 1.73614 0.421056 1.78404 1.73614 0.421056
55 19 1 4.27008 1.53354 4.57403 4.27008 1.53354 4.57403
56 19 2 5.00031 1.08421 4.9996 5.00031 1.08421 4.9996
57 19 2 4.68591 2.17498 3.99793 4.68591 2.17498 3.99793
67 23 1 0.868807 2.51519 3.26906 0.868807 2.51519 3.26906
68 23 2 1.26682 3.17134 3.84114 1.26682 3.17134 3.84114
69 23 2 1.6102 2.0976 2.83066 1.6102 2.0976 2.83066
79 27 1 5.31364 3.29844 3.02083 5.31364 3.29844 3.02083
80 27 2 4.56027 3.76814 2.66299 4.56027 3.76814 2.66299
81 27 2 5.70426 3.91085 3.64421 5.70426 3.91085 3.64421
151 51 1 1.72852 4.30271 5.18589 1.72852 4.30271 5.18589
152 51 2 2.34288 3.95512 5.83241 2.34288 3.95512 5.83241
153 51 2 1.90062 5.24423 5.17325 1.90062 5.24423 5.17325
156 52 2 3.78723 2.48472 6.12112 3.78723 2.48472 6.12112
163 55 1 3.34782 5.02136 2.51694 3.34782 5.02136 2.51694
164 55 2 2.9467 4.79347 1.67825 2.9467 4.79347 1.67825
165 55 2 2.9246 5.84166 2.77036 2.9246 5.84166 2.77036
10 4 1 11.6544 0.241512 0.681368 11.6544 0.241512 0.681368
11 4 2 10.7523 0.546401 0.584233 10.7523 0.546401 0.584233
12 4 2 12.1513 1.02892 0.903568 12.1513 1.02892 0.903568
19 7 1 11.5003 4.00568 6.0698 11.5003 4.00568 6.0698
20 7 2 12.3743 4.153 5.70832 12.3743 4.153 5.70832
21 7 2 10.9091 4.43384 5.45053 10.9091 4.43384 5.45053
28 10 1 6.29586 5.19634 4.8774 6.29586 5.19634 4.8774
29 10 2 6.91035 4.53521 5.19606 6.91035 4.53521 5.19606
30 10 2 6.85037 5.92597 4.601 6.85037 5.92597 4.601
43 15 1 8.91641 0.712913 4.32052 8.91641 0.712913 4.32052
44 15 2 9.85179 0.654305 4.12595 9.85179 0.654305 4.12595
45 15 2 8.49607 0.189803 3.63794 8.49607 0.189803 3.63794
49 17 1 7.76982 2.81185 5.58294 7.76982 2.81185 5.58294
51 17 2 8.14789 2.04025 5.16113 8.14789 2.04025 5.16113
76 26 1 12.1328 3.60993 1.29984 12.1328 3.60993 1.29984
78 26 2 11.4929 4.25574 1.59938 11.4929 4.25574 1.59938
91 31 1 9.36151 5.00678 1.65958 9.36151 5.00678 1.65958
92 31 2 8.56059 4.53988 1.42134 8.56059 4.53988 1.42134
93 31 2 9.20163 5.91098 1.3892 9.20163 5.91098 1.3892
109 37 1 9.63735 4.64063 4.4317 9.63735 4.64063 4.4317
110 37 2 9.46441 4.73509 3.49499 9.46441 4.73509 3.49499
111 37 2 9.08348 3.90951 4.70551 9.08348 3.90951 4.70551
120 40 2 8.26926 1.77489 0.215075 8.26926 1.77489 0.215075
124 42 1 11.8154 0.586647 4.61126 11.8154 0.586647 4.61126
126 42 2 12.2084 1.26357 4.06028 12.2084 1.26357 4.06028
190 64 1 7.50332 3.10279 1.09623 7.50332 3.10279 1.09623
191 64 2 6.99649 3.12892 1.90781 6.99649 3.12892 1.90781
192 64 2 6.8614 3.27273 0.406821 6.8614 3.27273 0.406821
26 9 2 6.22416 5.41633 10.5692 6.22416 5.41633 10.5692
85 29 1 5.44678 1.38252 9.99353 5.44678 1.38252 9.99353
86 29 2 4.78803 1.62626 9.34325 4.78803 1.62626 9.34325
87 29 2 6.06382 0.829422 9.51439 6.06382 0.829422 9.51439
97 33 1 3.91776 4.93403 9.00819 3.91776 4.93403 9.00819
98 33 2 4.08359 4.19152 8.42731 4.08359 4.19152 8.42731
99 33 2 4.78873 5.2396 9.26171 4.78873 5.2396 9.26171
100 34 1 1.9223 2.73621 11.3112 1.9223 2.73621 11.3112
101 34 2 2.47681 2.43 10.5936 2.47681 2.43 10.5936
102 34 2 2.31856 3.5636 11.5845 2.31856 3.5636 11.5845
103 35 1 5.6745 3.87836 11.7873 5.6745 3.87836 11.7873
104 35 2 5.47327 3.13266 11.2219 5.47327 3.13266 11.2219
105 35 2 4.83357 4.11817 12.1767 4.83357 4.11817 12.1767
149 50 2 4.11498 0.488479 11.6221 4.11498 0.488479 11.6221
154 52 1 3.48769 3.13911 6.75221 3.48769 3.13911 6.75221
155 52 2 3.25098 2.63255 7.52913 3.25098 2.63255 7.52913
160 54 1 1.4028 6.19165 8.66597 1.4028 6.19165 8.66597
161 54 2 2.16106 5.63179 8.49911 2.16106 5.63179 8.49911
166 56 1 0.263175 1.42132 9.36078 0.263175 1.42132 9.36078
169 57 1 3.19568 5.17837 11.8793 3.19568 5.17837 11.8793
170 57 2 3.11846 6.13245 11.8822 3.11846 6.13245 11.8822
171 57 2 3.41128 4.95781 10.9731 3.41128 4.95781 10.9731
172 58 1 2.75795 1.57377 8.91186 2.75795 1.57377 8.91186
173 58 2 2.88357 0.673803 8.61101 2.88357 0.673803 8.61101
174 58 2 1.80832 1.67461 8.97724 1.80832 1.67461 8.97724
176 59 2 0.324443 5.85616 12.2148 0.324443 5.85616 12.2148
4 2 1 8.71485 2.04122 8.2645 8.71485 2.04122 8.2645
5 2 2 8.7655 2.54168 9.07889 8.7655 2.54168 9.07889
6 2 2 9.60871 2.04885 7.92212 9.60871 2.04885 7.92212
25 9 1 6.2834 6.02265 9.83094 6.2834 6.02265 9.83094
27 9 2 7.2231 6.13657 9.68874 7.2231 6.13657 9.68874
34 12 1 11.1766 1.66852 7.2269 11.1766 1.66852 7.2269
35 12 2 11.2043 0.986839 6.5555 11.2043 0.986839 6.5555
36 12 2 11.4488 2.46518 6.77145 11.4488 2.46518 6.77145
50 17 2 7.92501 2.67471 6.51747 7.92501 2.67471 6.51747
70 24 1 8.63467 3.56609 10.3468 8.63467 3.56609 10.3468
71 24 2 9.49265 3.3266 10.6972 9.49265 3.3266 10.6972
72 24 2 8.75239 4.45431 10.01 8.75239 4.45431 10.01
82 28 1 11.2763 2.74257 11.5249 11.2763 2.74257 11.5249
83 28 2 11.5903 3.09542 12.3574 11.5903 3.09542 12.3574
84 28 2 10.5812 2.13182 11.77 10.5812 2.13182 11.77
118 40 1 9.04785 1.29526 12.3769 9.04785 1.29526 12.3769
119 40 2 8.73916 0.735223 11.6647 8.73916 0.735223 11.6647
187 63 1 11.1735 6.04708 8.16868 11.1735 6.04708 8.16868
189 63 2 11.3325 5.35683 7.52486 11.3325 5.35683 7.52486
31 11 1 4.61844 7.50409 6.12878 4.61844 7.50409 6.12878
32 11 2 5.0736 6.68371 5.93895 5.0736 6.68371 5.93895
40 14 1 1.9765 9.89417 2.0008 1.9765 9.89417 2.0008
41 14 2 2.40136 10.5258 2.58108 2.40136 10.5258 2.58108
42 14 2 2.08936 10.2604 1.12365 2.08936 10.2604 1.12365
54 18 2 0.997141 12.3835 6.1705 0.997141 12.3835 6.1705
61 21 1 5.27692 10.0951 4.74847 5.27692 10.0951 4.74847
62 21 2 4.3739 10.2309 4.46148 4.3739 10.2309 4.46148
63 21 2 5.25937 9.25486 5.20656 5.25937 9.25486 5.20656
96 32 2 5.74523 11.2525 6.08503 5.74523 11.2525 6.08503
112 38 1 1.95511 7.03187 6.08707 1.95511 7.03187 6.08707
114 38 2 2.88931 7.17013 6.24324 2.88931 7.17013 6.24324
121 41 1 5.94374 8.7586 1.18247 5.94374 8.7586 1.18247
123 41 2 5.79348 9.54496 1.70717 5.79348 9.54496 1.70717
133 45 1 1.30633 7.24235 2.33904 1.30633 7.24235 2.33904
134 45 2 1.74497 8.05332 2.08182 1.74497 8.05332 2.08182
135 45 2 0.80774 7.47702 3.12171 0.80774 7.47702 3.12171
177 59 2 0.592094 7.21276 0.386493 0.592094 7.21276 0.386493
179 60 2 4.20662 8.23477 -0.0247305 4.20662 8.23477 -0.0247305
181 61 1 2.91714 11.4631 4.04013 2.91714 11.4631 4.04013
182 61 2 2.25007 11.3449 4.71636 2.25007 11.3449 4.71636
183 61 2 3.21949 12.3638 4.15612 3.21949 12.3638 4.15612
46 16 1 8.7037 7.45956 0.971602 8.7037 7.45956 0.971602
47 16 2 8.823 8.04595 1.71869 8.823 8.04595 1.71869
48 16 2 9.39553 7.7081 0.35855 9.39553 7.7081 0.35855
58 20 1 9.42373 9.26159 3.11204 9.42373 9.26159 3.11204
59 20 2 10.0437 9.99065 3.13045 10.0437 9.99065 3.13045
60 20 2 9.68912 8.70239 3.84218 9.68912 8.70239 3.84218
64 22 1 7.27633 11.0458 3.26168 7.27633 11.0458 3.26168
65 22 2 6.52593 10.7886 3.7974 6.52593 10.7886 3.7974
66 22 2 7.85775 10.2857 3.28239 7.85775 10.2857 3.28239
73 25 1 9.63064 7.29489 5.18398 9.63064 7.29489 5.18398
74 25 2 9.21788 7.50491 6.02169 9.21788 7.50491 6.02169
75 25 2 9.58288 6.34067 5.12546 9.58288 6.34067 5.12546
90 30 2 11.8355 9.47792 6.03895 11.8355 9.47792 6.03895
108 36 2 9.061 11.7967 5.78421 9.061 11.7967 5.78421
122 41 2 6.62417 8.28034 1.65631 6.62417 8.28034 1.65631
127 43 1 6.24326 11.6167 0.909578 6.24326 11.6167 0.909578
128 43 2 6.51447 11.5856 1.82703 6.51447 11.5856 1.82703
129 43 2 6.98338 11.2473 0.427896 6.98338 11.2473 0.427896
142 48 1 11.7728 11.0815 2.74192 11.7728 11.0815 2.74192
143 48 2 11.7445 11.7224 2.03153 11.7445 11.7224 2.03153
157 53 1 12.3759 8.21093 4.7678 12.3759 8.21093 4.7678
158 53 2 11.6278 7.81673 5.2163 11.6278 7.81673 5.2163
15 5 2 6.21799 8.63947 11.8546 6.21799 8.63947 11.8546
16 6 1 2.22828 10.177 11.4599 2.22828 10.177 11.4599
17 6 2 1.44277 10.6609 11.2047 1.44277 10.6609 11.2047
18 6 2 2.9358 10.8189 11.3992 2.9358 10.8189 11.3992
33 11 2 4.94947 7.76921 6.9869 4.94947 7.76921 6.9869
52 18 1 1.37297 11.5159 6.31983 1.37297 11.5159 6.31983
53 18 2 0.621672 10.9623 6.53273 0.621672 10.9623 6.53273
94 32 1 5.81154 12.1519 6.40585 5.81154 12.1519 6.40585
113 38 2 1.59126 6.85009 6.95356 1.59126 6.85009 6.95356
115 39 1 3.77633 11.4602 8.04623 3.77633 11.4602 8.04623
116 39 2 4.36621 11.7764 7.36191 4.36621 11.7764 7.36191
117 39 2 2.96935 11.2362 7.58276 2.96935 11.2362 7.58276
130 44 1 5.50902 9.05131 8.47442 5.50902 9.05131 8.47442
131 44 2 5.62433 8.87673 9.40847 5.62433 8.87673 9.40847
132 44 2 5.37991 9.99828 8.42142 5.37991 9.99828 8.42142
136 46 1 0.0250618 11.6482 10.7778 0.0250618 11.6482 10.7778
137 46 2 0.320793 12.2984 10.1406 0.320793 12.2984 10.1406
162 54 2 1.53108 6.50928 9.55978 1.53108 6.50928 9.55978
175 59 1 0.375823 6.78781 12.0012 0.375823 6.78781 12.0012
178 60 1 3.49763 7.7449 12.0033 3.49763 7.7449 12.0033
180 60 2 2.87769 8.41603 11.7178 2.87769 8.41603 11.7178
1 1 1 7.41476 12.2369 8.72149 7.41476 12.2369 8.72149
2 1 2 7.86203 11.8643 9.48129 7.86203 11.8643 9.48129
7 3 1 10.505 8.07567 11.3742 10.505 8.07567 11.3742
8 3 2 11.3404 7.61803 11.4688 11.3404 7.61803 11.4688
9 3 2 10.7071 8.83285 10.8246 10.7071 8.83285 10.8246
13 5 1 6.26323 8.62904 10.8985 6.26323 8.62904 10.8985
14 5 2 6.40934 7.7098 10.6752 6.40934 7.7098 10.6752
22 8 1 10.6321 10.1917 9.94396 10.6321 10.1917 9.94396
23 8 2 11.4218 10.7023 10.1223 11.4218 10.7023 10.1223
24 8 2 10.8053 9.76742 9.10359 10.8053 9.76742 9.10359
88 30 1 11.8064 10.0557 6.80151 11.8064 10.0557 6.80151
89 30 2 10.9566 10.492 6.73966 10.9566 10.492 6.73966
95 32 2 6.33863 12.0844 7.20201 6.33863 12.0844 7.20201
106 36 1 9.34097 11.242 6.51238 9.34097 11.242 6.51238
107 36 2 8.61035 11.2701 7.13015 8.61035 11.2701 7.13015
139 47 1 8.09679 10.7078 11.2721 8.09679 10.7078 11.2721
140 47 2 7.48983 10.0075 11.0323 7.48983 10.0075 11.0323
141 47 2 8.88672 10.5254 10.7632 8.88672 10.5254 10.7632
145 49 1 7.97755 8.25637 7.27535 7.97755 8.25637 7.27535
146 49 2 7.08961 8.58544 7.41506 7.08961 8.58544 7.41506
147 49 2 8.1694 7.74285 8.06004 8.1694 7.74285 8.06004
184 62 1 9.00516 6.66169 9.5167 9.00516 6.66169 9.5167
185 62 2 9.80995 6.51029 9.02111 9.80995 6.51029 9.02111
186 62 2 9.30503 6.93187 10.3846 9.30503 6.93187 10.3846
188 63 2 12.0427 6.26804 8.50323 12.0427 6.26804 8.50323
3 1 2 7.93213 13.0093 8.49344 7.93213 13.0093 8.49344
150 50 2 4.66949 24.5636 0.326825 4.66949 24.5636 0.326825
125 42 2 11.7774 24.7019 4.04978 11.7774 24.7019 4.04978
148 50 1 3.85404 24.7721 12.3157 3.85404 24.7721 12.3157
77 26 2 12.5988 3.34768 2.09378 12.5988 3.34768 2.09378
167 56 2 24.8159 2.01109 10.0353 24.8159 2.01109 10.0353
168 56 2 24.6366 1.62833 8.58164 24.6366 1.62833 8.58164
144 48 2 12.4671 10.4732 2.48875 12.4671 10.4732 2.48875
159 53 2 13.138 7.7581 5.12885 13.138 7.7581 5.12885
138 46 2 24.6488 12.1627 11.54 24.6488 12.1627 11.54
ITEM: TIMESTEP
2000
ITEM: NUMBER OF ATOMS
192
ITEM: BOX BOUNDS pp pp pp
0.0000000000000000e+00 2.4889500000000002e+01
0.0000000000000000e+00 2.4889500000000002e+01
0.0000000000000000e+00 1.2444699999999999e+01
ITEM: ATOMS id mol type x y z xu yu zu
82 28 1 11.7924 1.59768 11.9909 11.7924 1.59768 11.9909
38 13 2 1.68525 4.53944 2.8868 1.68525 4.53944 2.8868
55 19 1 5.9408 2.82146 5.9275 5.9408 2.82146 5.9275
56 19 2 5.88908 3.33613 5.1221 5.88908 3.33613 5.1221
57 19 2 6.6422 3.23419 6.43142 6.6422 3.23419 6.43142
36 12 2 11.1227 1.75171 6.87489 11.1227 1.75171 6.87489
79 27 1 5.43815 4.10949 3.63515 5.43815 4.10949 3.63515
80 27 2 4.82431 3.50242 3.22175 4.82431 3.50242 3.22175
81 27 2 4.93325 4.91297 3.7606 4.93325 4.91297 3.7606
153 51 2 2.00052 2.49069 5.52129 2.00052 2.49069 5.52129
37 13 1 1.38172 3.63331 2.94191 1.38172 3.63331 2.94191
156 52 2 4.23235 1.47648 5.22618 4.23235 1.47648 5.22618
151 51 1 1.18143 2.98592 5.52953 1.18143 2.98592 5.52953
126 42 2 10.2208 4.19725 2.56453 10.2208 4.19725 2.56453
168 56 2 4.72076 2.02596 7.25403 29.6103 2.02596 7.25403
67 23 1 3.71704 2.13458 2.80158 3.71704 2.13458 2.80158
154 52 1 3.3652 1.08356 5.3257 3.3652 1.08356 5.3257
155 52 2 3.10883 0.83946 4.43637 3.10883 0.83946 4.43637
68 23 2 3.4875 1.65107 2.008 3.4875 1.65107 2.008
50 17 2 8.03382 3.48936 7.89781 8.03382 3.48936 7.89781
35 12 2 9.78226 1.26284 6.36884 9.78226 1.26284 6.36884
10 4 1 7.99419 1.02524 5.19376 7.99419 1.02524 5.19376
118 40 1 8.99003 2.59505 2.73998 8.99003 2.59505 15.1847
43 15 1 8.83044 4.32223 5.06452 8.83044 4.32223 5.06452
44 15 2 8.92247 3.6648 4.37493 8.92247 3.6648 4.37493
45 15 2 8.58762 5.12378 4.60107 8.58762 5.12378 4.60107
21 7 2 12.2024 3.69092 6.47409 12.2024 3.69092 6.47409
110 37 2 11.9977 5.53697 4.43902 11.9977 5.53697 4.43902
120 40 2 8.35668 3.14093 2.27402 8.35668 3.14093 2.27402
8 3 2 9.30372 5.14725 8.92385 9.30372 5.14725 8.92385
152 51 2 0.50753 2.33208 5.71551 0.50753 2.33208 5.71551
190 64 1 7.28453 4.35462 1.58487 7.28453 4.35462 1.58487
191 64 2 6.73527 4.36774 2.36868 6.73527 4.36774 2.36868
192 64 2 6.74677 3.92111 0.922207 6.74677 3.92111 0.922207
84 28 2 12.4815 2.22276 12.2157 12.4815 2.22276 12.2157
119 40 2 9.27215 1.94892 2.09255 9.27215 1.94892 14.5373
12 4 2 8.60938 1.35402 4.53826 8.60938 1.35402 4.53826
11 4 2 7.31815 1.70067 5.24851 7.31815 1.70067 5.24851
125 42 2 10.0995 5.70556 2.61134 10.0995 30.5951 2.61134
100 34 1 1.98201 1.28403 0.250977 1.98201 1.28403 12.6957
161 54 2 1.44704 5.51191 7.9278 1.44704 5.51191 7.9278
150 50 2 10.1911 0.829911 0.425947 10.1911 25.7194 0.425947
167 56 2 3.41827 1.33985 7.60714 28.3078 1.33985 7.60714
99 33 2 3.65474 5.15301 6.99757 3.65474 5.15301 6.99757
174 58 2 4.30269 -0.228756 11.4859 4.30269 -0.228756 11.4859
26 9 2 5.43335 4.49449 11.2929 5.43335 4.49449 11.2929
85 29 1 7.48645 1.02233 11.3244 7.48645 1.02233 11.3244
86 29 2 6.7384 0.530346 10.9859 6.7384 0.530346 10.9859
97 33 1 3.27338 4.85507 7.82342 3.27338 4.85507 7.82342
98 33 2 3.25928 3.90073 7.75077 3.25928 3.90073 7.75077
39 13 2 1.17297 3.50601 3.86735 1.17297 3.50601 3.86735
124 42 1 10.7433 4.99732 2.61959 10.7433 4.99732 2.61959
102 34 2 2.53856 1.73051 12.0576 2.53856 1.73051 12.0576
103 35 1 5.69537 2.97531 12.2509 5.69537 2.97531 12.2509
104 35 2 6.15161 2.19494 11.9361 6.15161 2.19494 11.9361
105 35 2 4.77263 2.80733 12.0597 4.77263 2.80733 12.0597
169 57 1 3.16632 2.57229 10.6741 3.16632 2.57229 10.6741
170 57 2 2.96107 3.50631 10.7155 2.96107 3.50631 10.7155
171 57 2 3.72334 2.48297 9.90085 3.72334 2.48297 9.90085
160 54 1 0.631504 6.0089 7.86347 0.631504 6.0089 7.86347
34 12 1 10.2826 1.40279 7.17276 10.2826 1.40279 7.17276
166 56 1 4.09169 1.91699 7.96722 4.09169 1.91699 7.96722
149 50 2 8.72665 0.575781 0.138498 8.72665 0.575781 12.5832
69 23 2 3.00308 2.76192 2.91534 3.00308 2.76192 2.91534
72 24 2 11.7362 3.3548 9.17113 11.7362 3.3548 9.17113
71 24 2 11.6378 4.22778 10.4041 11.6378 4.22778 10.4041
178 60 1 2.69542 5.33554 10.577 2.69542 5.33554 10.577
29 10 2 6.42611 5.73417 7.25056 6.42611 5.73417 7.25056
49 17 1 7.7375 4.25049 7.39871 7.7375 4.25049 7.39871
51 17 2 8.21779 4.19745 6.57243 8.21779 4.19745 6.57243
92 31 2 8.06161 6.10551 1.66964 8.06161 6.10551 1.66964
83 28 2 11.3957 1.95356 11.1958 11.3957 1.95356 11.1958
109 37 1 11.7112 5.21541 5.29387 11.7112 5.21541 5.29387
111 37 2 10.7782 5.03367 5.18154 10.7782 5.03367 5.18154
87 29 2 7.82837 1.49258 10.564 7.82837 1.49258 10.564
177 59 2 0.604056 6.51791 0.845963 0.604056 6.51791 0.845963
70 24 1 11.1864 3.52544 9.93589 11.1864 3.52544 9.93589
6 2 2 9.22826 1.9632 8.50837 9.22826 1.9632 8.50837
148 50 1 9.34183 0.728681 0.855712 9.34183 25.6182 13.3004
4 2 1 8.6977 2.3897 9.18131 8.6977 2.3897 9.18131
5 2 2 9.32142 2.91753 9.6799 9.32142 2.91753 9.6799
162 54 2 -0.0580864 5.35092 7.95152 -0.0580864 5.35092 7.95152
179 60 2 2.04034 5.93513 10.9342 2.04034 5.93513 -1.51049
101 34 2 1.12072 1.68713 0.141808 1.12072 1.68713 12.5865
27 9 2 4.3365 5.39921 10.773 4.3365 5.39921 10.773
25 9 1 5.2487 5.40513 11.063 5.2487 5.40513 11.063
180 60 2 2.75022 5.56497 9.64931 2.75022 5.56497 9.64931
7 3 1 9.26734 5.97339 9.40594 9.26734 5.97339 9.40594
40 14 1 2.82452 10.4977 1.0777 2.82452 10.4977 1.0777
41 14 2 2.58208 10.9592 1.88049 2.58208 10.9592 1.88049
42 14 2 2.21898 10.8324 0.416251 2.21898 10.8324 0.416251
54 18 2 2.05448 9.47806 5.99366 2.05448 9.47806 5.99366
62 21 2 4.81902 8.84462 3.11251 4.81902 8.84462 3.11251
112 38 1 1.53263 7.64985 5.74114 1.53263 7.64985 5.74114
165 55 2 2.55221 6.94597 2.65795 2.55221 6.94597 2.65795
121 41 1 3.27887 8.01847 0.320534 3.27887 8.01847 0.320534
123 41 2 3.38656 8.88751 0.707056 3.38656 8.88751 0.707056
133 45 1 2.94169 11.8888 3.83413 2.94169 11.8888 3.83413
91 31 1 8.66942 6.62682 2.19407 8.66942 6.62682 2.19407
135 45 2 2.61671 11.318 4.53044 2.61671 11.318 4.53044
181 61 1 5.24561 10.494 3.61657 5.24561 10.494 3.61657
182 61 2 4.43555 10.9963 3.52839 4.43555 10.9963 3.52839
183 61 2 5.20634 10.1285 4.50035 5.20634 10.1285 4.50035
122 41 2 4.02003 7.5135 0.655091 4.02003 7.5135 0.655091
33 11 2 4.32148 7.02494 4.62852 4.32148 7.02494 4.62852
52 18 1 2.19984 10.4066 6.17489 2.19984 10.4066 6.17489
189 63 2 11.5931 6.24786 6.59533 11.5931 6.24786 6.59533
113 38 2 0.978788 7.21061 6.38656 0.978788 7.21061 6.38656
114 38 2 2.35343 7.15758 5.75455 2.35343 7.15758 5.75455
144 48 2 10.9901 8.74836 5.00929 10.9901 8.74836 5.00929
61 21 1 4.62972 7.90913 3.18505 4.62972 7.90913 3.18505
63 21 2 5.11032 7.51008 2.45978 5.11032 7.51008 2.45978
75 25 2 8.52234 7.3593 5.14282 8.52234 7.3593 5.14282
46 16 1 5.69994 7.21324 0.854954 5.69994 7.21324 0.854954
47 16 2 6.2826 7.81717 0.394517 6.2826 7.81717 0.394517
48 16 2 5.56573 6.49285 0.239123 5.56573 6.49285 0.239123
58 20 1 9.30795 8.96636 1.25058 9.30795 8.96636 1.25058
59 20 2 9.7692 9.13129 2.07294 9.7692 9.13129 2.07294
60 20 2 9.04906 8.04621 1.30099 9.04906 8.04621 1.30099
64 22 1 8.73019 10.878 4.32445 8.73019 10.878 4.32445
65 22 2 7.88695 10.7287 4.75211 7.88695 10.7287 4.75211
66 22 2 8.50526 11.2691 3.48029 8.50526 11.2691 3.48029
73 25 1 7.84704 6.75922 4.82643 7.84704 6.75922 4.82643
74 25 2 7.07051 6.97887 5.3412 7.07051 6.97887 5.3412
138 46 2 0.105767 7.16856 10.666 24.9953 7.16856 10.666
188 63 2 11.6618 7.70137 7.01303 11.6618 7.70137 7.01303
127 43 1 6.93304 8.88936 11.8262 6.93304 8.88936 -0.618471
128 43 2 7.82308 9.17898 12.0266 7.82308 9.17898 -0.41805
129 43 2 6.99821 8.49907 10.9546 6.99821 8.49907 -1.49006
142 48 1 10.3051 8.53989 4.37399 10.3051 8.53989 4.37399
143 48 2 9.76628 9.33002 4.33407 9.76628 9.33002 4.33407
158 53 2 11.3729 10.1609 6.54293 11.3729 10.1609 6.54293
96 32 2 6.81859 11.2565 2.35025 6.81859 11.2565 2.35025
185 62 2 9.63455 8.01223 6.94957 9.63455 8.01223 6.94957
163 55 1 1.8208 6.50861 3.09382 1.8208 6.50861 3.09382
95 32 2 7.64089 11.1231 1.08615 7.64089 11.1231 1.08615
94 32 1 7.61771 11.5744 1.93001 7.61771 11.5744 1.93001
117 39 2 0.699489 11.5683 8.30969 0.699489 11.5683 8.30969
146 49 2 5.87188 10.1255 6.81983 5.87188 10.1255 6.81983
115 39 1 0.855655 12.1207 9.07563 0.855655 12.1207 9.07563
15 5 2 2.76617 9.82397 10.4838 2.76617 9.82397 10.4838
16 6 1 1.29684 10.7938 11.3185 1.29684 10.7938 11.3185
17 6 2 0.834518 9.9909 11.0781 0.834518 9.9909 11.0781
18 6 2 1.17911 11.3731 10.5657 1.17911 11.3731 10.5657
53 18 2 2.88559 10.4164 6.84263 2.88559 10.4164 6.84263
141 47 2 7.62776 6.91127 9.64571 7.62776 6.91127 9.64571
130 44 1 4.13884 10.5925 7.97857 4.13884 10.5925 7.97857
131 44 2 3.90663 10.0814 8.75388 3.90663 10.0814 8.75388
132 44 2 3.84451 11.4808 8.17973 3.84451 11.4808 8.17973
136 46 1 0.429453 7.77868 10.0032 0.429453 7.77868 10.0032
145 49 1 6.5768 10.0479 6.17695 6.5768 10.0479 6.17695
157 53 1 11.9304 9.4087 6.3442 11.9304 9.4087 6.3442
13 5 1 3.48189 9.26673 10.178 3.48189 9.26673 10.178
14 5 2 3.63974 8.66028 10.9016 3.63974 8.66028 10.9016
140 47 2 6.23008 6.53497 10.0893 6.23008 6.53497 10.0893
184 62 1 8.74099 8.35498 6.93174 8.74099 8.35498 6.93174
31 11 1 4.02861 6.40131 5.29301 4.02861 6.40131 5.29301
147 49 2 7.26719 9.56815 6.63458 7.26719 9.56815 6.63458
108 36 2 9.91112 11.7944 5.67449 9.91112 11.7944 5.67449
186 62 2 8.25746 7.79625 7.54022 8.25746 7.79625 7.54022
137 46 2 0.510364 7.24998 9.2094 0.510364 7.24998 9.2094
32 11 2 4.67448 6.47795 5.9953 4.67448 6.47795 5.9953
176 59 2 1.83238 7.03872 0.13052 1.83238 7.03872 12.5752
28 10 1 6.10184 6.62237 7.10163 6.10184 6.62237 7.10163
9 3 2 10.1841 6.20646 9.55223 10.1841 6.20646 9.55223
93 31 2 8.12953 6.99144 2.89536 8.12953 6.99144 2.89536
107 36 2 9.9053 11.8397 7.1877 9.9053 11.8397 7.1877
24 8 2 12.0691 6.51224 9.00354 12.0691 6.51224 9.00354
164 55 2 1.59226 7.08908 3.8198 1.59226 7.08908 3.8198
187 63 1 11.5541 6.81728 7.36375 11.5541 6.81728 7.36375
30 10 2 6.21983 7.065 7.9421 6.21983 7.065 7.9421
106 36 1 10.4913 11.8741 6.43163 10.4913 11.8741 6.43163
139 47 1 6.72606 7.23215 9.66017 6.72606 7.23215 9.66017
175 59 1 1.08235 6.45451 12.464 1.08235 6.45451 12.464
22 8 1 12.08 6.34139 9.94531 12.08 6.34139 9.94531
2 1 2 3.50252 14.4073 8.75641 3.50252 14.4073 8.75641
134 45 2 2.26362 12.5572 3.73567 2.26362 12.5572 3.73567
1 1 1 3.38636 13.4905 9.00561 3.38636 13.4905 9.00561
3 1 2 3.44356 13.4924 9.96109 3.44356 13.4924 9.96109
116 39 2 1.7425 12.4587 8.95099 1.7425 12.4587 8.95099
173 58 2 4.94641 24.5326 10.1217 4.94641 -0.356872 10.1217
172 58 1 5.14815 24.5274 11.0574 5.14815 -0.362146 11.0574
77 26 2 13.5099 5.59213 1.464 13.5099 5.59213 1.464
19 7 1 12.4469 2.78331 6.65496 12.4469 2.78331 6.65496
76 26 1 13.3362 4.66379 1.30823 13.3362 4.66379 1.30823
20 7 2 12.9972 2.53069 5.9136 12.9972 2.53069 5.9136
78 26 2 12.4122 4.55173 1.53153 12.4122 4.55173 1.53153
159 53 2 12.7979 9.78534 6.1965 12.7979 9.78534 6.1965
88 30 1 13.4341 12.0176 5.87765 13.4341 12.0176 5.87765
90 30 2 13.85 12.7972 5.50946 13.85 12.7972 5.50946
23 8 2 12.9756 6.54393 10.2156 12.9756 6.54393 10.2156
89 30 2 12.5261 12.2794 6.03022 12.5261 12.2794 6.03022
ITEM: TIMESTEP
4000
ITEM: NUMBER OF ATOMS
192
ITEM: BOX BOUNDS pp pp pp
0.0000000000000000e+00 2.4889500000000002e+01
0.0000000000000000e+00 2.4889500000000002e+01
0.0000000000000000e+00 1.2444699999999999e+01
ITEM: ATOMS id mol type x y z xu yu zu
38 13 2 2.63123 5.15962 2.60358 2.63123 5.15962 2.60358
55 19 1 4.04079 1.60188 4.9235 4.04079 1.60188 4.9235
56 19 2 4.27811 2.52672 4.85578 4.27811 2.52672 4.85578
79 27 1 5.18266 4.32298 4.37273 5.18266 4.32298 4.37273
80 27 2 4.59718 4.42454 3.62231 4.59718 4.42454 3.62231
81 27 2 4.78811 4.86057 5.05944 4.78811 4.86057 5.05944
153 51 2 0.70377 3.336 5.24503 0.70377 3.336 5.24503
37 13 1 3.18087 4.38015 2.68454 3.18087 4.38015 2.68454
156 52 2 2.69475 1.85428 3.87253 2.69475 1.85428 3.87253
151 51 1 0.608481 3.99481 5.93287 0.608481 3.99481 5.93287
67 23 1 4.83635 3.10413 0.595558 4.83635 3.10413 0.595558
154 52 1 1.86443 1.82323 3.3973 1.86443 1.82323 3.3973
155 52 2 1.44767 1.01454 3.69491 1.44767 1.01454 3.69491
68 23 2 4.92321 2.62077 1.41718 4.92321 2.62077 1.41718
152 51 2 1.15733 3.67519 6.649 1.15733 3.67519 6.649
39 13 2 2.56651 3.67248 2.87944 2.56651 3.67248 2.87944
69 23 2 4.19964 3.79241 0.788194 4.19964 3.79241 0.788194
57 19 2 4.47152 1.1882 4.17546 4.47152 1.1882 4.17546
70 24 1 11.8748 2.73719 9.75616 11.8748 2.73719 9.75616
71 24 2 11.9791 3.68437 9.84676 11.9791 3.68437 9.84676
10 4 1 5.34877 0.456152 2.90869 5.34877 0.456152 2.90869
118 40 1 7.5132 1.52363 3.98966 7.5132 1.52363 16.4344
43 15 1 9.16868 4.88968 7.65953 9.16868 4.88968 7.65953
44 15 2 9.05577 4.26737 6.94105 9.05577 4.26737 6.94105
45 15 2 8.64337 5.64823 7.40478 8.64337 5.64823 7.40478
126 42 2 11.4848 3.62921 2.80121 11.4848 3.62921 2.80121
120 40 2 7.53581 2.46881 3.84015 7.53581 2.46881 3.84015
190 64 1 7.63332 4.19516 3.66471 7.63332 4.19516 3.66471
191 64 2 6.70827 4.29735 3.88845 6.70827 4.29735 3.88845
192 64 2 7.63557 4.03308 2.72133 7.63557 4.03308 2.72133
119 40 2 8.37659 1.21624 3.71345 8.37659 1.21624 16.1581
12 4 2 6.1738 0.895635 3.11464 6.1738 0.895635 3.11464
125 42 2 11.4065 5.10456 3.13154 11.4065 29.9941 3.13154
150 50 2 10.8552 0.656527 2.69604 10.8552 25.546 2.69604
27 9 2 5.45426 4.83212 10.985 5.45426 4.83212 10.985
149 50 2 9.68893 0.395493 1.76669 9.68893 0.395493 14.2114
25 9 1 6.15212 5.48726 10.9893 6.15212 5.48726 10.9893
84 28 2 12.2378 3.08349 0.550953 12.2378 3.08349 12.9957
148 50 1 9.90643 0.529572 2.68916 9.90643 25.4191 15.1339
101 34 2 4.22447 1.54435 9.82678 4.22447 1.54435 9.82678
85 29 1 8.09241 1.02326 0.284758 8.09241 1.02326 12.7295
104 35 2 7.88484 2.60857 1.08821 7.88484 2.60857 13.5329
92 31 2 9.03425 5.45768 4.19334 9.03425 5.45768 4.19334
35 12 2 8.78483 2.64588 5.42213 8.78483 2.64588 5.42213
102 34 2 4.37678 2.02261 11.2551 4.37678 2.02261 11.2551
168 56 2 4.34099 1.78115 7.19044 29.2305 1.78115 7.19044
167 56 2 5.39838 2.09682 8.22687 30.2879 2.09682 8.22687
99 33 2 2.66472 4.68763 7.9493 2.66472 4.68763 7.9493
26 9 2 6.94586 4.99374 10.7828 6.94586 4.99374 10.7828
97 33 1 2.36023 3.86586 8.33428 2.36023 3.86586 8.33428
98 33 2 3.11946 3.28457 8.29064 3.11946 3.28457 8.29064
51 17 2 8.83581 4.5031 9.28578 8.83581 4.5031 9.28578
105 35 2 6.8557 3.65928 0.729364 6.8557 3.65928 13.1741
169 57 1 7.80158 1.3752 8.33114 7.80158 1.3752 8.33114
170 57 2 7.5161 0.589174 7.86542 7.5161 0.589174 7.86542
171 57 2 8.27661 1.88415 7.67422 8.27661 1.88415 7.67422
166 56 1 4.45363 2.12678 8.07593 4.45363 2.12678 8.07593
178 60 1 3.2737 4.65187 10.7515 3.2737 4.65187 10.7515
180 60 2 2.84867 4.24551 9.99626 2.84867 4.24551 9.99626
179 60 2 2.55005 4.95885 11.2977 2.55005 4.95885 -1.14696
87 29 2 8.49673 1.32256 11.9151 8.49673 1.32256 11.9151
49 17 1 8.69404 4.30563 10.2116 8.69404 4.30563 10.2116
100 34 1 4.06722 1.2819 10.7338 4.06722 1.2819 10.7338
86 29 2 7.16753 0.909629 0.0658821 7.16753 0.909629 12.5106
5 2 2 10.1234 2.13869 9.99414 10.1234 2.13869 9.99414
124 42 1 12.0308 4.39546 2.9774 12.0308 4.39546 2.9774
21 7 2 11.8816 4.29009 5.96477 11.8816 4.29009 5.96477
103 35 1 7.63454 3.51504 1.2668 7.63454 3.51504 13.7115
34 12 1 9.30977 2.41686 6.18908 9.30977 2.41686 6.18908
20 7 2 12.3328 3.89615 4.57442 12.3328 3.89615 4.57442
6 2 2 8.78493 1.52066 9.65015 8.78493 1.52066 9.65015
4 2 1 9.29608 1.85849 10.3856 9.29608 1.85849 10.3856
36 12 2 10.2071 2.36727 5.85959 10.2071 2.36727 5.85959
50 17 2 9.01955 3.41189 10.3189 9.01955 3.41189 10.3189
23 8 2 11.2358 5.77306 10.3962 11.2358 5.77306 10.3962
8 3 2 9.23984 6.07749 11.2798 9.23984 6.07749 11.2798
19 7 1 12.0778 3.5277 5.42027 12.0778 3.5277 5.42027
72 24 2 12.3385 2.52101 8.94717 12.3385 2.52101 8.94717
162 54 2 0.271762 5.61558 5.35258 0.271762 5.61558 5.35258
91 31 1 9.83114 5.98765 4.17512 9.83114 5.98765 4.17512
48 16 2 5.87925 5.99556 0.329655 5.87925 5.99556 0.329655
22 8 1 12.0885 5.34376 10.466 12.0885 5.34376 10.466
11 4 2 5.5801 -0.186567 2.23814 5.5801 -0.186567 2.23814
40 14 1 2.82549 10.7831 0.178372 2.82549 10.7831 0.178372
41 14 2 2.44769 10.3128 0.921553 2.44769 10.3128 0.921553
54 18 2 1.35373 9.04437 6.88517 1.35373 9.04437 6.88517
62 21 2 6.31665 6.89824 4.03844 6.31665 6.89824 4.03844
112 38 1 1.49136 7.16316 7.13153 1.49136 7.16316 7.13153
165 55 2 2.01609 7.80678 2.62115 2.01609 7.80678 2.62115
133 45 1 2.0256 9.46423 2.67452 2.0256 9.46423 2.67452
135 45 2 1.2849 9.82484 3.16193 1.2849 9.82484 3.16193
181 61 1 6.18573 10.8392 6.03377 6.18573 10.8392 6.03377
122 41 2 4.70871 8.06581 0.0333878 4.70871 8.06581 0.0333878
163 55 1 1.99072 6.8643 2.78646 1.99072 6.8643 2.78646
114 38 2 2.35075 7.0062 6.74032 2.35075 7.0062 6.74032
61 21 1 5.46589 7.19534 3.71569 5.46589 7.19534 3.71569
63 21 2 5.44172 6.90785 2.803 5.44172 6.90785 2.803
46 16 1 5.84655 6.65742 1.02038 5.84655 6.65742 1.02038
164 55 2 1.53233 6.77955 3.62248 1.53233 6.77955 3.62248
66 22 2 6.41458 10.6318 3.13313 6.41458 10.6318 3.13313
134 45 2 2.77971 9.97253 2.97315 2.77971 9.97253 2.97315
96 32 2 5.02946 10.2506 4.31701 5.02946 10.2506 4.31701
94 32 1 4.85597 9.80745 3.48652 4.85597 9.80745 3.48652
176 59 2 2.69533 6.76531 12.2957 2.69533 6.76531 12.2957
95 32 2 5.10611 8.89695 3.64355 5.10611 8.89695 3.64355
160 54 1 0.215207 6.41231 4.82508 0.215207 6.41231 4.82508
47 16 2 6.72866 7.02859 1.03906 6.72866 7.02859 1.03906
144 48 2 9.4483 9.24656 4.62983 9.4483 9.24656 4.62983
75 25 2 7.96774 7.69986 5.41135 7.96774 7.69986 5.41135
58 20 1 10.8282 8.14508 1.30926 10.8282 8.14508 1.30926
59 20 2 11.673 7.69523 1.29533 11.673 7.69523 1.29533
60 20 2 10.8739 8.7179 2.07478 10.8739 8.7179 2.07478
74 25 2 6.80939 7.48466 6.36204 6.80939 7.48466 6.36204
28 10 1 5.78198 7.46109 8.00501 5.78198 7.46109 8.00501
90 30 2 10.7938 12.0051 1.62844 10.7938 12.0051 1.62844
89 30 2 9.72992 10.9399 1.78762 9.72992 10.9399 1.78762
142 48 1 8.80733 8.77506 4.09778 8.80733 8.77506 4.09778
143 48 2 8.28763 9.46318 3.6823 8.28763 9.46318 3.6823
189 63 2 10.9524 8.12039 6.83007 10.9524 8.12039 6.83007
88 30 1 10.5221 11.286 2.1987 10.5221 11.286 2.1987
159 53 2 10.9713 10.7729 4.03804 10.9713 10.7729 4.03804
32 11 2 4.71968 6.42972 6.86353 4.71968 6.42972 6.86353
188 63 2 10.9649 9.59891 6.50493 10.9649 9.59891 6.50493
127 43 1 8.17261 8.47016 0.479763 8.17261 8.47016 0.479763
128 43 2 9.11403 8.34437 0.598673 9.11403 8.34437 0.598673
129 43 2 8.0369 9.40806 0.614515 8.0369 9.40806 0.614515
158 53 2 9.90346 11.2423 5.00298 9.90346 11.2423 5.00298
157 53 1 10.7072 10.7245 4.95679 10.7072 10.7245 4.95679
16 6 1 0.783315 10.2785 10.6126 0.783315 10.2785 10.6126
9 3 2 10.2801 6.94084 11.9612 10.2801 6.94084 11.9612
42 14 2 2.17018 10.7027 11.93 2.17018 10.7027 -0.514698
121 41 1 3.92343 8.19238 11.9456 3.92343 8.19238 -0.499103
123 41 2 3.57251 9.03558 12.2321 3.57251 9.03558 -0.212565
182 61 2 5.34674 10.8316 6.49451 5.34674 10.8316 6.49451
183 61 2 6.80078 10.4393 6.64863 6.80078 10.4393 6.64863
52 18 1 1.35677 9.99517 6.77468 1.35677 9.99517 6.77468
137 46 2 1.10966 6.94967 9.01529 1.10966 6.94967 9.01529